
                                 *****************
                                 * O   R   C   A *
                                 *****************

                                            #,                                       
                                            ###                                      
                                            ####                                     
                                            #####                                    
                                            ######                                   
                                           ########,                                 
                                     ,,################,,,,,                         
                               ,,#################################,,                 
                          ,,##########################################,,             
                       ,#########################################, ''#####,          
                    ,#############################################,,   '####,        
                  ,##################################################,,,,####,       
                ,###########''''           ''''###############################       
              ,#####''   ,,,,##########,,,,          '''####'''          '####       
            ,##' ,,,,###########################,,,                        '##       
           ' ,,###''''                  '''############,,,                           
         ,,##''                                '''############,,,,        ,,,,,,###''
      ,#''                                            '''#######################'''  
     '                                                          ''''####''''         
             ,#######,   #######,   ,#######,      ##                                
            ,#'     '#,  ##    ##  ,#'     '#,    #''#        ,####,   ,####,        
            ##       ##  ##   ,#'  ##            #'  '#       #'       #'  '#        
            ##       ##  #######   ##           ,######,      #####,   #    #        
            '#,     ,#'  ##    ##  '#,     ,#' ,#      #,     #,   #   #,  ,#        
             '#######'   ##     ##  '#######'  #'      '#     '####' # '####'        



                #########################################################
                #                        -***-                          #
                #          Department of theory and spectroscopy        #
                #                                                       #
                #                      Frank Neese                      #
                #                                                       #
                #     Directorship, Architecture, Infrastructure        #
                #                    SHARK, DRIVERS                     #
                #        Core code/Algorithms in most modules           #
                #                                                       #
                #        Max Planck Institute fuer Kohlenforschung      #
                #                Kaiser Wilhelm Platz 1                 #
                #                 D-45470 Muelheim/Ruhr                 #
                #                      Germany                          #
                #                                                       #
                #                  All rights reserved                  #
                #                        -***-                          #
                #########################################################


                         Program Version 6.0.0  -   RELEASE  -


 With contributions from (in alphabetic order):
   Daniel Aravena         : Magnetic Suceptibility
   Michael Atanasov       : Ab Initio Ligand Field Theory (pilot matlab implementation)
   Alexander A. Auer      : GIAO ZORA, VPT2 properties, NMR spectrum
   Ute Becker             : All parallelization in ORCA, NUMFREQ, NUMCALC
   Giovanni Bistoni       : ED, misc. LED, open-shell LED, HFLD
   Martin Brehm           : Molecular dynamics
   Dmytro Bykov           : pre 5.0 version of the SCF Hessian
   Marcos Casanova-Páez   : Triplet and SCS-CIS(D). UHF-(DLPNO)-IP/EA/STEOM-CCSD. UHF-CVS-IP/STEOM-CCSD
   Vijay G. Chilkuri      : MRCI spin determinant printing, contributions to CSF-ICE
   Pauline Colinet        : FMM embedding
   Dipayan Datta          : RHF DLPNO-CCSD density
   Achintya Kumar Dutta   : EOM-CC, STEOM-CC
   Nicolas Foglia         : Exact transition moments, OPA infrastructure, MCD improvements
   Dmitry Ganyushin       : Spin-Orbit,Spin-Spin,Magnetic field MRCI
   Miquel Garcia          : C-PCM and meta-GGA Hessian, CCSD/C-PCM, Gaussian charge scheme
   Tiago L. C. Gouveia    : GS-ROHF, GS-ROCIS
   Yang Guo               : DLPNO-NEVPT2, F12-NEVPT2, CIM, IAO-localization
   Andreas Hansen         : Spin unrestricted coupled pair/coupled cluster methods
   Ingolf Harden          : AUTO-CI MPn and infrastructure 
   Benjamin Helmich-Paris : MC-RPA, TRAH-(SCF,CASSCF), AVAS, COSX integrals, SCF dyn. polar.
   Lee Huntington         : MR-EOM, pCC
   Robert Izsak           : Overlap fitted RIJCOSX, COSX-SCS-MP3, EOM
   Riya Kayal             : Wick's Theorem for AUTO-CI, AUTO-CI UHF-CCSDT
   Emily Kempfer          : AUTO-CI, RHF CISDT and CCSDT
   Christian Kollmar      : KDIIS, OOCD, Brueckner-CCSD(T), CCSD density, CASPT2, CASPT2-K, improved NEVPT2
   Axel Koslowski         : Symmetry handling
   Simone Kossmann        : Meta GGA functionals, TD-DFT gradient, OOMP2, (MP2 Hessian; deprecated post 5.0)
   Lucas Lang             : DCDCAS
   Marvin Lechner         : AUTO-CI (C++ implementation), FIC-MRCC
   Spencer Leger          : CASSCF response
   Dagmar Lenk            : GEPOL surface, SMD, ORCA-2-JSON
   Dimitrios Liakos       : Extrapolation schemes; Compound Job, initial MDCI parallelization
   Dimitrios Manganas     : Further ROCIS development; embedding schemes. LFT, Crystal Embedding
   Dimitrios Pantazis     : SARC Basis sets
   Anastasios Papadopoulos: AUTO-CI, single reference methods and gradients
   Taras Petrenko         : pre 6.0 DFT Hessian and TD-DFT gradient, (ASA, deprecated), ECA, 1-Electron XAS/XES, NRVS
   Peter Pinski           : DLPNO-MP2, DLPNO-MP2 Gradient
   Christoph Reimann      : Effective Core Potentials
   Marius Retegan         : Local ZFS, SOC
   Christoph Riplinger    : Optimizer, TS searches, QM/MM, DLPNO-CCSD(T), (RO)-DLPNO pert. Triples
   Michael Roemelt        : Original ROCIS implementation
   Masaaki Saitow         : Open-shell DLPNO-CCSD energy and density
   Barbara Sandhoefer     : DKH picture change effects
   Kantharuban Sivalingam : CASSCF convergence/infrastructure, NEVPT2 and variants, FIC-MRCI
   Bernardo de Souza      : ESD, SOC TD-DFT
   Georgi Stoychev        : AutoAux, RI-MP2 NMR, DLPNO-MP2 response, X2C
   Van Anh Tran           : RI-MP2 g-tensors
   Willem Van den Heuvel  : Paramagnetic NMR
   Zikuan Wang            : NOTCH, Electric field optimization 
   Frank Wennmohs         : Technical directorship and infrastructure
   Hang Xu                : AUTO-CI-Response properties 


 We gratefully acknowledge several colleagues who have allowed us to
 interface, adapt or use parts of their codes:
   Stefan Grimme, W. Hujo, H. Kruse, P. Pracht,  : VdW corrections, initial TS optimization,
                  C. Bannwarth, S. Ehlert,         DFT functionals, gCP, sTDA/sTD-DF
                  L. Wittmann, M. Mueller
   Ed Valeev, F. Pavosevic, A. Kumar             : LibInt (2-el integral package), F12 methods
   Garnet Chan, S. Sharma, J. Yang, R. Olivares  : DMRG
   Ulf Ekstrom                                   : XCFun DFT Library
   Mihaly Kallay                                 : mrcc  (arbitrary order and MRCC methods)
   Frank Weinhold                                : gennbo (NPA and NBO analysis)
   Simon Mueller                                 : openCOSMO-RS
   Christopher J. Cramer and Donald G. Truhlar   : smd solvation model
   Lars Goerigk                                  : TD-DFT with DH, B97 family of functionals
   V. Asgeirsson, H. Jonsson                     : NEB implementation
   FAccTs GmbH                                   : IRC, NEB, NEB-TS, DLPNO-Multilevel, CI-OPT
                                                   MM, QMMM, 2- and 3-layer-ONIOM, Crystal-QMMM,
                                                   LR-CPCM, SF, NACMEs, symmetry and pop. for TD-DFT,
                                                   nearIR, NL-DFT gradient (VV10), updates on ESD,
                                                   ML-optimized integration grids, MBIS, APM,
                                                   GOAT, DOCKER, SOLVATOR, interface openCOSMO-RS
   S Lehtola, MJT Oliveira, MAL Marques          : LibXC Library
   Liviu Ungur et al                             : ANISO software


 Your calculation uses the libint2 library for the computation of 2-el integrals
 For citations please refer to: http://libint.valeyev.net

 Your ORCA version has been built with support for libXC version: 6.2.2
 For citations please refer to: https://libxc.gitlab.io

 This ORCA versions uses:
   CBLAS   interface :  Fast vector & matrix operations
   LAPACKE interface :  Fast linear algebra routines
   SCALAPACK package :  Parallel linear algebra routines
   Shared memory     :  Shared parallel matrices
   BLAS/LAPACK       :  OpenBLAS 0.3.27  USE64BITINT DYNAMIC_ARCH NO_AFFINITY Haswell SINGLE_THREADED
        Core in use  :  Haswell
   Copyright (c) 2011-2014, The OpenBLAS Project


NOTE: MaxCore=4096 MB was set to SCF,MP2,MDCI,CIPSI,MRCI and CIS
      => If you want to overwrite this, your respective input block should be placed after the MaxCore statement
Warning: RI is on but no J-basis has been assigned. Assigning Def2/J (nothing to worry about!)
================================================================================

----- Orbital basis set information -----
Your calculation utilizes the basis: EPR-II
   V. Barone, in Recent Advances in Density Functional Methods, Part 1 (ed. D. P. Chong), World Scientific, Singapore, 1995, p. 287.

The basis set includes element-specific modifications.

Your calculation utilizes the basis: CP(PPP) 

----- AuxJ basis set information -----
Your calculation utilizes the auxiliary basis: def2/J
   F. Weigend, Phys. Chem. Chem. Phys. 8, 1057 (2006).

================================================================================
                                        WARNINGS
                       Please study these warnings very carefully!
================================================================================


================================================================================
                                       INPUT FILE
================================================================================
NAME = system.inp
|  1> ! UKS B3LYP SmallPrint TightSCF
|  2> %basis basis "EPR-II"
|  3>  newGTO Cu "CP(PPP)" end
|  4> end
|  5> %maxcore 4096
|  6> 
|  7> %pal nprocs 16 end
|  8> 
|  9> %method
| 10> SpecialGridAtoms 29,7
| 11> SpecialGridIntAcc 9,8
| 12> end
| 13> * xyz 2 2
| 14>   Cu    4.91966199855577    1.776998    4.24175930112691
| 15>   O           4.64520465780769      4.19722545750571     10.28023189862484
| 16>   N           6.59551117084369      1.01321268278208      3.35700400688593
| 17>   N           4.64549649685737     -0.77677049222132      4.38685743570610
| 18>   N           3.99957334905399      1.33472606211082      2.47492812065569
| 19>   N           5.61270251610395      3.67179063383959      2.63982216303112
| 20>   N           5.78404061585058      2.22643827758117      6.07734748962160
| 21>   N           3.27523624500738      2.58811164512583      5.19352492687512
| 22>   N           2.01770338164204      4.62176646394419      9.42095588342216
| 23>   N           3.46293236571648      3.50626326832436     12.24773865742191
| 24>   C           6.99157046004182     -0.22668877490729      3.69337385441502
| 25>   C           6.08180655699320     -1.05708834960170      4.57725577557242
| 26>   H           6.32956772825533     -2.10965749832076      4.39776984546826
| 27>   H           6.33426480173228     -0.85525051225282      5.61831719961035
| 28>   C           3.76627236165554     -1.46805483764319      5.42791016754408
| 29>   C           2.30626649727563     -1.05966176841521      5.18735951207725
| 30>   H           2.18633236002970      0.02180457058720      5.23985983129424
| 31>   H           1.67759097588611     -1.50372383616581      5.95903572417907
| 32>   H           1.91545953931251     -1.40477796857122      4.23018122893536
| 33>   C           4.15666732352301     -0.99846446779108      6.83612777929273
| 34>   H           5.13074099370388     -1.36792382139525      7.15677071318630
| 35>   H           3.42925666173118     -1.38407274446827      7.55056161437735
| 36>   H           4.15081979152741      0.08836218344538      6.90953930347586
| 37>   C           3.88894520891619     -3.00232756197383      5.36829896069124
| 38>   H           3.60661226190293     -3.41307130963057      4.39773277773865
| 39>   H           3.22137832400226     -3.44832792884164      6.10626377159186
| 40>   H           4.89722527651195     -3.34563100558494      5.60293883008175
| 41>   C           4.22239811222218     -1.07240492916496      3.00417231794977
| 42>   H           3.51999970327213     -1.90319972324163      2.96988148493754
| 43>   H           5.08643478347132     -1.41601116547912      2.42555112387850
| 44>   C           3.63653428599655      0.07466265344944      2.19469022311134
| 45>   C           3.75298326346102      2.33720256404364      1.61397143136985
| 46>   C           3.00536510407000      2.11268121186191      0.46524108835387
| 47>   H           2.81553276916741      2.92411049296989     -0.22475625659315
| 48>   C           2.52010850945959      0.83543007146066      0.21492702282223
| 49>   H           1.91657600556096      0.64228795907639     -0.66269543620431
| 50>   C           2.85769273118331     -0.19909627591602      1.07487637932013
| 51>   H           2.54530132173788     -1.21450576668922      0.86883189075625
| 52>   C           4.32531412710363      3.70720786098053      1.91979478136672
| 53>   H           4.39340590903234      4.24816687600665      0.96874885108877
| 54>   H           3.60645839013837      4.25117791708622      2.53253128283938
| 55>   C           6.06177827400829      5.05250923486572      3.11493884773296
| 56>   C           6.29108314618164      6.02714335951898      1.94443628459717
| 57>   H           7.05551737096591      5.68206413951053      1.24634157730884
| 58>   H           6.63054978672411      6.98729767746601      2.33437256361708
| 59>   H           5.37672410384951      6.21818366742676      1.38159975455976
| 60>   C           5.00350728719274      5.65068917477340      4.05216056821007
| 61>   H           4.08594897626345      5.93263725804909      3.53600534644252
| 62>   H           5.40044393086797      6.56235457318386      4.49873380573619
| 63>   H           4.75640833223216      4.96404084939854      4.86053988231089
| 64>   C           7.36198858721454      4.89751387392390      3.91614843327972
| 65>   H           8.19464139743464      4.52763694003462      3.31793859920634
| 66>   H           7.22214388839428      4.22930581363470      4.76529969441894
| 67>   H           7.66308721426983      5.87097038399701      4.30300322599493
| 68>   C           6.64910953797454      2.97944600492914      1.85178485386725
| 69>   H           6.21688319683191      2.63302425396662      0.90686963251778
| 70>   H           7.44713362577660      3.65812247995118      1.55565039106118
| 71>   C           7.28701160967343      1.74480562139759      2.47052307322441
| 72>   C           8.51617439958904      1.29594910945510      1.99727395500185
| 73>   H           9.08208511783106      1.90357600211753      1.30324601216055
| 74>   C           8.98460565924159      0.05355272325319      2.39729731464739
| 75>   H           9.93734733074233     -0.31358413122280      2.03770078335067
| 76>   C           8.19574760327015     -0.73542448702850      3.22488447484955
| 77>   H           8.50387407908422     -1.73645211986783      3.49627712022957
| 78>   C           7.03119708432250      2.03155638624606      6.48712185876374
| 79>   H           7.71569258078806      1.58705483999609      5.77692674639269
| 80>   C           7.46759945325108      2.38485044856948      7.76824158433908
| 81>   H           8.49482222500176      2.20033774971319      8.05064165223262
| 82>   C           6.57953254219787      2.96560463719289      8.64622509720429
| 83>   H           6.88271169625420      3.25126097990744      9.64434286786152
| 84>   C           5.25374074163083      3.19017886547116      8.23441754968364
| 85>   C           4.89589631675755      2.79694375655010      6.92802923562242
| 86>   C           3.55912354894436      2.99259293165554      6.45652557421667
| 87>   C           2.04638945672182      2.76188956890324      4.72712217901932
| 88>   C           1.30373237366879      3.77103743069437      6.77336028632310
| 89>   C           2.60032614268528      3.59200489362705      7.29961759463288
| 90>   C           2.97052921281587      3.99741070387682      8.62360274360942
| 91>   C           2.31624873938658      4.90514782608082     10.62961074344854
| 92>   H           1.55694486883703      5.39028535402457     11.23343002285678
| 93>   C           3.60560366652137      4.57776152690248     11.33817415500610
| 94>   C           4.41327301402940      3.63775641480131     13.28217362044360
| 95>   C           4.80878543587819      2.69123436615250     14.21414604692275
| 96>   H           4.39295197572144      1.69268465863024     14.22913225186519
| 97>   C           5.77734778804698      3.06770912912050     15.14765891051516
| 98>   H           6.10376073880767      2.34882758960465     15.88805478135414
| 99>   C           6.32714317314068      4.34385286393152     15.13795795387674
|100>   H           7.07644069735686      4.61341516350252     15.87024696525379
|101>   C           5.91091179618210      5.28469972699991     14.19136775066446
|102>   H           6.33674854880100      6.28080373820083     14.19525445338377
|103>   C           4.95033912813612      4.92377474626638     13.26611332320638
|104>   C           4.25371185174062      5.74015353163473     12.19047402172333
|105>   C           3.15611496579575      6.60056421802914     12.85688617380235
|106>   H           2.62106048086766      7.21190887362525     12.12675751392585
|107>   H           3.62800345298231      7.27674168050537     13.56907978375822
|108>   H           2.43738273324432      5.99341876561596     13.40858145105376
|109>   C           5.18021126865581      6.64937867653371     11.37954661394277
|110>   H           6.02992586689945      6.10966280110568     10.96776747583561
|111>   H           5.56493705904201      7.43747595786582     12.02798748511134
|112>   H           4.64313755715110      7.13724474672377     10.56292021903670
|113>   C           2.90697536806466      2.21909514492985     11.88085419941550
|114>   H           2.48234450866859      1.73992746247431     12.76275099036447
|115>   H           3.66266308222032      1.54799701911093     11.45459727160499
|116>   H           2.10088398489111      2.35259989019279     11.16076862308918
|117>   C           4.25780445361525      3.80123777864483      9.07718268333769
|118>   H           0.54738093381508      4.23444468631592      7.39181239288956
|119>   H           1.84780262528025      2.41585774910133      3.72191399783105
|120>   C           1.03288607341913      3.35503316425268      5.49097514861723
|121>   H           0.04794832782904      3.47633435881394      5.06126928873400
|122> *
|123> 
|124> %eprnmr
|125>    GTensor 1
|126>    nuclei = all Cu { aiso, adip, aorb, fgrad }
|127>    nuclei = all N { aiso, adip, aorb, fgrad }
|128> end
|129> 
|130> 
|131>                          ****END OF INPUT****
================================================================================

                       ****************************
                       * Single Point Calculation *
                       ****************************

---------------------------------
CARTESIAN COORDINATES (ANGSTROEM)
---------------------------------
  Cu     4.919662    1.776998    4.241759
  O      4.645205    4.197225   10.280232
  N      6.595511    1.013213    3.357004
  N      4.645496   -0.776770    4.386857
  N      3.999573    1.334726    2.474928
  N      5.612703    3.671791    2.639822
  N      5.784041    2.226438    6.077347
  N      3.275236    2.588112    5.193525
  N      2.017703    4.621766    9.420956
  N      3.462932    3.506263   12.247739
  C      6.991570   -0.226689    3.693374
  C      6.081807   -1.057088    4.577256
  H      6.329568   -2.109657    4.397770
  H      6.334265   -0.855251    5.618317
  C      3.766272   -1.468055    5.427910
  C      2.306266   -1.059662    5.187360
  H      2.186332    0.021805    5.239860
  H      1.677591   -1.503724    5.959036
  H      1.915460   -1.404778    4.230181
  C      4.156667   -0.998464    6.836128
  H      5.130741   -1.367924    7.156771
  H      3.429257   -1.384073    7.550562
  H      4.150820    0.088362    6.909539
  C      3.888945   -3.002328    5.368299
  H      3.606612   -3.413071    4.397733
  H      3.221378   -3.448328    6.106264
  H      4.897225   -3.345631    5.602939
  C      4.222398   -1.072405    3.004172
  H      3.520000   -1.903200    2.969881
  H      5.086435   -1.416011    2.425551
  C      3.636534    0.074663    2.194690
  C      3.752983    2.337203    1.613971
  C      3.005365    2.112681    0.465241
  H      2.815533    2.924110   -0.224756
  C      2.520109    0.835430    0.214927
  H      1.916576    0.642288   -0.662695
  C      2.857693   -0.199096    1.074876
  H      2.545301   -1.214506    0.868832
  C      4.325314    3.707208    1.919795
  H      4.393406    4.248167    0.968749
  H      3.606458    4.251178    2.532531
  C      6.061778    5.052509    3.114939
  C      6.291083    6.027143    1.944436
  H      7.055517    5.682064    1.246342
  H      6.630550    6.987298    2.334373
  H      5.376724    6.218184    1.381600
  C      5.003507    5.650689    4.052161
  H      4.085949    5.932637    3.536005
  H      5.400444    6.562355    4.498734
  H      4.756408    4.964041    4.860540
  C      7.361989    4.897514    3.916148
  H      8.194641    4.527637    3.317939
  H      7.222144    4.229306    4.765300
  H      7.663087    5.870970    4.303003
  C      6.649110    2.979446    1.851785
  H      6.216883    2.633024    0.906870
  H      7.447134    3.658122    1.555650
  C      7.287012    1.744806    2.470523
  C      8.516174    1.295949    1.997274
  H      9.082085    1.903576    1.303246
  C      8.984606    0.053553    2.397297
  H      9.937347   -0.313584    2.037701
  C      8.195748   -0.735424    3.224884
  H      8.503874   -1.736452    3.496277
  C      7.031197    2.031556    6.487122
  H      7.715693    1.587055    5.776927
  C      7.467599    2.384850    7.768242
  H      8.494822    2.200338    8.050642
  C      6.579533    2.965605    8.646225
  H      6.882712    3.251261    9.644343
  C      5.253741    3.190179    8.234418
  C      4.895896    2.796944    6.928029
  C      3.559124    2.992593    6.456526
  C      2.046389    2.761890    4.727122
  C      1.303732    3.771037    6.773360
  C      2.600326    3.592005    7.299618
  C      2.970529    3.997411    8.623603
  C      2.316249    4.905148   10.629611
  H      1.556945    5.390285   11.233430
  C      3.605604    4.577762   11.338174
  C      4.413273    3.637756   13.282174
  C      4.808785    2.691234   14.214146
  H      4.392952    1.692685   14.229132
  C      5.777348    3.067709   15.147659
  H      6.103761    2.348828   15.888055
  C      6.327143    4.343853   15.137958
  H      7.076441    4.613415   15.870247
  C      5.910912    5.284700   14.191368
  H      6.336749    6.280804   14.195254
  C      4.950339    4.923775   13.266113
  C      4.253712    5.740154   12.190474
  C      3.156115    6.600564   12.856886
  H      2.621060    7.211909   12.126758
  H      3.628003    7.276742   13.569080
  H      2.437383    5.993419   13.408581
  C      5.180211    6.649379   11.379547
  H      6.029926    6.109663   10.967767
  H      5.564937    7.437476   12.027987
  H      4.643138    7.137245   10.562920
  C      2.906975    2.219095   11.880854
  H      2.482345    1.739927   12.762751
  H      3.662663    1.547997   11.454597
  H      2.100884    2.352600   11.160769
  C      4.257804    3.801238    9.077183
  H      0.547381    4.234445    7.391812
  H      1.847803    2.415858    3.721914
  C      1.032886    3.355033    5.490975
  H      0.047948    3.476334    5.061269

----------------------------
CARTESIAN COORDINATES (A.U.)
----------------------------
  NO LB      ZA    FRAG     MASS         X           Y           Z
   0 Cu   29.0000    0    63.550    9.296814    3.358040    8.015763
   1 O     8.0000    0    15.999    8.778165    7.931607   19.426823
   2 N     7.0000    0    14.007   12.463710    1.914694    6.343818
   3 N     7.0000    0    14.007    8.778716   -1.467883    8.289959
   4 N     7.0000    0    14.007    7.558098    2.522267    4.676936
   5 N     7.0000    0    14.007   10.606471    6.938679    4.988541
   6 N     7.0000    0    14.007   10.930253    4.207359   11.484522
   7 N     7.0000    0    14.007    6.189300    4.890822    9.814340
   8 N     7.0000    0    14.007    3.812907    8.733873   17.803027
   9 N     7.0000    0    14.007    6.543994    6.625877   23.144872
  10 C     6.0000    0    12.011   13.212153   -0.428380    6.979465
  11 C     6.0000    0    12.011   11.492949   -1.997607    8.649760
  12 H     1.0000    0     1.008   11.961150   -3.986675    8.310581
  13 H     1.0000    0     1.008   11.970026   -1.616189   10.617081
  14 C     6.0000    0    12.011    7.117223   -2.774222   10.257264
  15 C     6.0000    0    12.011    4.358212   -2.002471    9.802689
  16 H     1.0000    0     1.008    4.131569    0.041205    9.901900
  17 H     1.0000    0     1.008    3.170188   -2.841626   11.260946
  18 H     1.0000    0     1.008    3.619694   -2.654646    7.993884
  19 C     6.0000    0    12.011    7.854963   -1.886824   12.918409
  20 H     1.0000    0     1.008    9.695695   -2.585001   13.524337
  21 H     1.0000    0     1.008    6.480356   -2.615518   14.268494
  22 H     1.0000    0     1.008    7.843913    0.166980   13.057137
  23 C     6.0000    0    12.011    7.349041   -5.673577   10.144615
  24 H     1.0000    0     1.008    6.815509   -6.449770    8.310511
  25 H     1.0000    0     1.008    6.087523   -6.516395   11.539166
  26 H     1.0000    0     1.008    9.254415   -6.322326   10.588020
  27 C     6.0000    0    12.011    7.979176   -2.026552    5.677063
  28 H     1.0000    0     1.008    6.651835   -3.596526    5.612263
  29 H     1.0000    0     1.008    9.611969   -2.675873    4.583627
  30 C     6.0000    0    12.011    6.872054    0.141092    4.147363
  31 C     6.0000    0    12.011    7.092111    4.416673    3.049964
  32 C     6.0000    0    12.011    5.679317    3.992389    0.879178
  33 H     1.0000    0     1.008    5.320586    5.525768   -0.424728
  34 C     6.0000    0    12.011    4.762315    1.578734    0.406153
  35 H     1.0000    0     1.008    3.621804    1.213748   -1.252313
  36 C     6.0000    0    12.011    5.400257   -0.376237    2.031222
  37 H     1.0000    0     1.008    4.809922   -2.295083    1.641854
  38 C     6.0000    0    12.011    8.173659    7.005608    3.627886
  39 H     1.0000    0     1.008    8.302334    8.027872    1.830670
  40 H     1.0000    0     1.008    6.815219    8.033562    4.785791
  41 C     6.0000    0    12.011   11.455101    9.547859    5.886381
  42 C     6.0000    0    12.011   11.888424   11.389650    3.674452
  43 H     1.0000    0     1.008   13.332996   10.737545    2.355244
  44 H     1.0000    0     1.008   12.529923   13.204079    4.411325
  45 H     1.0000    0     1.008   10.160536   11.750664    2.610845
  46 C     6.0000    0    12.011    9.455258   10.678255    7.657474
  47 H     1.0000    0     1.008    7.721325   11.211060    6.682082
  48 H     1.0000    0     1.008   10.205360   12.401053    8.501375
  49 H     1.0000    0     1.008    8.988309    9.380678    9.185089
  50 C     6.0000    0    12.011   13.912142    9.254960    7.400448
  51 H     1.0000    0     1.008   15.485628    8.555994    6.269995
  52 H     1.0000    0     1.008   13.647874    7.992230    9.005111
  53 H     1.0000    0     1.008   14.481136   11.094526    8.131498
  54 C     6.0000    0    12.011   12.564996    5.630337    3.499366
  55 H     1.0000    0     1.008   11.748207    4.975695    1.713735
  56 H     1.0000    0     1.008   14.073043    6.912850    2.939753
  57 C     6.0000    0    12.011   13.770456    3.297205    4.668612
  58 C     6.0000    0    12.011   16.093237    2.448989    3.774301
  59 H     1.0000    0     1.008   17.162654    3.597237    2.462778
  60 C     6.0000    0    12.011   16.978444    0.101200    4.530235
  61 H     1.0000    0     1.008   18.778865   -0.592588    3.850696
  62 C     6.0000    0    12.011   15.487718   -1.389751    6.094148
  63 H     1.0000    0     1.008   16.069993   -3.281419    6.607006
  64 C     6.0000    0    12.011   13.287037    3.839085   12.258884
  65 H     1.0000    0     1.008   14.580546    2.999099   10.916809
  66 C     6.0000    0    12.011   14.111718    4.506714   14.679849
  67 H     1.0000    0     1.008   16.052888    4.158036   15.213508
  68 C     6.0000    0    12.011   12.433515    5.604181   16.338998
  69 H     1.0000    0     1.008   13.006440    6.143993   18.225167
  70 C     6.0000    0    12.011    9.928131    6.028564   15.560794
  71 C     6.0000    0    12.011    9.251903    5.285458   13.092078
  72 C     6.0000    0    12.011    6.725769    5.655181   12.201065
  73 C     6.0000    0    12.011    3.867116    5.219215    8.932966
  74 C     6.0000    0    12.011    2.463697    7.126228   12.799796
  75 C     6.0000    0    12.011    4.913904    6.787906   13.794278
  76 C     6.0000    0    12.011    5.613487    7.554011   16.296247
  77 C     6.0000    0    12.011    4.377076    9.269386   20.087053
  78 H     1.0000    0     1.008    2.942199   10.186163   21.228106
  79 C     6.0000    0    12.011    6.813603    8.650716   21.426044
  80 C     6.0000    0    12.011    8.339877    6.874363   25.099671
  81 C     6.0000    0    12.011    9.087288    5.085696   26.860843
  82 H     1.0000    0     1.008    8.301476    3.198710   26.889163
  83 C     6.0000    0    12.011   10.917605    5.797130   28.624927
  84 H     1.0000    0     1.008   11.534436    4.438641   30.024072
  85 C     6.0000    0    12.011   11.956568    8.208692   28.606595
  86 H     1.0000    0     1.008   13.372535    8.718091   29.990420
  87 C     6.0000    0    12.011   11.170004    9.986635   26.817799
  88 H     1.0000    0     1.008   11.974719   11.868999   26.825143
  89 C     6.0000    0    12.011    9.354785    9.304586   25.069321
  90 C     6.0000    0    12.011    8.038350   10.847318   23.036657
  91 C     6.0000    0    12.011    5.964193   12.473259   24.295994
  92 H     1.0000    0     1.008    4.953086   13.628533   22.916251
  93 H     1.0000    0     1.008    6.855933   13.751049   25.641845
  94 H     1.0000    0     1.008    4.605986   11.325920   25.338547
  95 C     6.0000    0    12.011    9.789181   12.565505   21.504227
  96 H     1.0000    0     1.008   11.394908   11.545589   20.726077
  97 H     1.0000    0     1.008   10.516207   14.054793   22.729602
  98 H     1.0000    0     1.008    8.774258   13.487438   19.961026
  99 C     6.0000    0    12.011    5.493387    4.193482   22.451561
 100 H     1.0000    0     1.008    4.690951    3.287986   24.118104
 101 H     1.0000    0     1.008    6.921430    2.925290   21.646052
 102 H     1.0000    0     1.008    3.970095    4.445769   21.090796
 103 C     6.0000    0    12.011    8.046084    7.183298   17.153389
 104 H     1.0000    0     1.008    1.034400    8.001941   13.968501
 105 H     1.0000    0     1.008    3.491841    4.565310    7.033398
 106 C     6.0000    0    12.011    1.951872    6.340094   10.376439
 107 H     1.0000    0     1.008    0.090609    6.569320    9.564413

--------------------------------
INTERNAL COORDINATES (ANGSTROEM)
--------------------------------
 Cu     0   0   0     0.000000000000     0.00000000     0.00000000
 O      1   0   0     6.511219477847     0.00000000     0.00000000
 N      1   2   0     2.043191226915   125.10724251     0.00000000
 N      1   2   3     2.572538377331   108.19121390    84.11309776
 N      1   2   4     2.040553848903   149.83133430    96.67870373
 N      1   2   4     2.576188440046   108.33844416   188.39831856
 N      1   2   4     2.078107541705    28.11266989   278.49817327
 N      1   2   7     2.065889447816    52.64543608   178.30995509
 N      2   1   3     2.796847027047    79.11122508   178.07108493
 N      2   1   3     2.397139830180   132.44085963   244.05904431
 C      3   1   2     1.344382110736   118.55876772    77.80836560
 C      4   1   2     1.475742598774    95.28530670   272.22816181
 H     12   4   1     1.096130744905   112.41225705   196.01513049
 H     12   4   1     1.090083742903   108.26742615    78.81017835
 C      4   1   2     1.527972485555   123.28965311    33.87831465
 C     15   4   1     1.535013563739   108.67282692    63.98686273
 H     16  15   4     1.089362163465   111.17925472   302.03887942
 H     16  15   4     1.089912018253   109.22492171   183.11620585
 H     16  15   4     1.089965841539   113.22899630    64.48206604
 C     15   4   1     1.534926768204   109.89643239   306.34776375
 H     20  15   4     1.090014504473   113.17066954   289.90744982
 H     20  15   4     1.090062254481   108.86581309   171.72485397
 H     20  15   4     1.089318876799   111.45068479    52.98850589
 C     15   4   1     1.540322990824   112.23755720   185.30906291
 H     24  15   4     1.091064175335   112.87989289   300.59189430
 H     24  15   4     1.090483349349   109.41710576   181.77236034
 H     24  15   4     1.090661183601   112.26120346    63.19237344
 C      4   1   2     1.475882819960   100.16943789   159.53623616
 H     28   4   1     1.088466524974   111.55532808   213.90068111
 H     28   4   1     1.095183592429   109.36871235    98.61014259
 C      5   1   2     1.340928944565   120.44427241   257.52081182
 C      5   1   2     1.344251549401   118.40087921    76.63691214
 C     32   5   1     1.388857138370   120.52580180   186.84400943
 H     33  32   5     1.081919650273   120.04597142   180.28881011
 C     33  32   5     1.389064998361   119.06111313   359.73083274
 H     35  33  32     1.082486276784   120.32694823   178.63060547
 C     35  33  32     1.386982611973   119.28052737   356.29184583
 H     37  35  33     1.082173349291   120.76747574   183.89646028
 C      6   1   2     1.475487266789    94.95527450   246.32802736
 H     39   6   1     1.096248834983   112.39601624   195.82540673
 H     39   6   1     1.090001381992   108.24509740    78.60367763
 C      6   1   2     1.527674296321   123.39715417     7.78885899
 C     42   6   1     1.540314465182   112.29072573   185.29946809
 H     43  42   6     1.091226636610   112.97521708   300.07489508
 H     43  42   6     1.090497233380   109.37415117   181.26122612
 H     43  42   6     1.090565824279   112.22308755    62.75598400
 C     42   6   1     1.534972727894   109.84271060   306.34049069
 H     47  42   6     1.089873473655   113.08429386   289.86593832
 H     47  42   6     1.090009245018   108.96712685   171.62341472
 H     47  42   6     1.089045881379   111.34260838    52.83846645
 C     42   6   1     1.535091925734   108.66595353    63.96868938
 H     51  42   6     1.089942500398   113.25712387    64.17237766
 H     51  42   6     1.089548721223   111.09906069   301.72986181
 H     51  42   6     1.089924121609   109.21175605   182.88405067
 C      6   1   2     1.474612966442   100.14000962   133.59837827
 H     55   6   1     1.095304713336   109.40071620    98.62127027
 H     55   6   1     1.088641273571   111.58485276   213.85975666
 C      3   1   2     1.341361073865   120.34000744   258.44759194
 C     58   3   1     1.391502087790   120.27897112   171.79846590
 H     59  58   3     1.082192296753   119.92844808   181.69944617
 C     59  58   3     1.386721065582   119.29320892     3.37377096
 H     61  59  58     1.082504423940   120.35368530   179.84701804
 C     11   3   1     1.388645712854   120.59314049   186.64200575
 H     63  11   3     1.081966827020   120.08451473   180.34160685
 C      7   1   2     1.327137235567   129.18685356   181.15919251
 H     65   7   1     1.081893158743   116.88494009     0.79157019
 C     65   7   1     1.398760691948   122.60863589   180.31330714
 H     67  65   7     1.081194412300   119.50763875   179.80212932
 C     67  65   7     1.377241197095   119.28850887   359.62658150
 H     69  67  65     1.081552693903   121.26081472   179.99452806
 C     69  67  65     1.406322487430   119.24560183     0.00000000
 C      7   1   2     1.355705067677   111.88679975     1.10460095
 C      8   1   2     1.356232925302   112.30350717   359.58085699
 C      8   1   2     1.325818509103   128.84109199   178.73133292
 C     74   8   1     2.399376865302    92.40713996   181.07172877
 C     73   8   1     1.410457841019   122.75894461   179.27590593
 C      9   2   1     1.390492434086    57.60625089     1.77828379
 C      9   2   1     1.276824536772    61.52344024   175.43916455
 H     78   9   2     1.084665160792   117.55193432   173.99910192
 C     10   2   1     1.412717665446    37.16692862   240.67902119
 C     10   2   1     1.410848499353   104.04643871   136.86497394
 C     81  10   2     1.385967773122   128.43323630   233.01614140
 H     82  81  10     1.081777967661   122.00612013     0.14271710
 C     82  81  10     1.396886732589   117.59283288   180.01946288
 H     84  82  81     1.082368757788   119.15928214   179.90885083
 C     84  82  81     1.389572562311   121.14347533   359.76788414
 H     86  84  82     1.081830767417   119.87752877   180.03432877
 C     86  84  82     1.398025175642   120.32980000     0.42919768
 H     88  86  84     1.083316780757   119.95648006   179.41812768
 C     88  86  84     1.381688260008   118.98666954   359.78000119
 C     90  88  86     1.519461677803   130.72591195   175.91408419
 C     91  90  88     1.545681283362   108.62854603   281.96344917
 H     92  91  90     1.092297326620   111.78971215   179.93179218
 H     92  91  90     1.089547815914   108.64681944    61.38625968
 H     92  91  90     1.090673783235   112.09591326   302.76718785
 C     91  90  88     1.530586421719   114.62661262    44.29527092
 H     96  91  90     1.087598355662   112.25510882    52.28992197
 H     96  91  90     1.090681815212   109.13326201   292.66538024
 H     96  91  90     1.092401090667   111.33108599   174.57415519
 C     10   2   1     1.449308168282   103.73408206     8.53870649
 H    100  10   2     1.089795845352   109.57930959   170.83009682
 H    100  10   2     1.096873549827   112.17730096    50.51379226
 H    100  10   2     1.089095988546   110.02474326   288.80929171
 C      2   1   3     1.324466901973    19.74936487   182.83548390
 H     75  74   8     1.081340276346   152.18926423   179.51064401
 H     74   8   1     1.081488898448   117.07958929     1.76866030
 C     75  74   8     1.375110508092    30.50469428   179.72012085
 H    107  75  74     1.081417342430   121.06549242   179.88016060

---------------------------
INTERNAL COORDINATES (A.U.)
---------------------------
 Cu     0   0   0     0.000000000000     0.00000000     0.00000000
 O      1   0   0    12.304421610984     0.00000000     0.00000000
 N      1   2   0     3.861071858100   125.10724251     0.00000000
 N      1   2   3     4.861393002158   108.19121390    84.11309776
 N      1   2   4     3.856087935945   149.83133430    96.67870373
 N      1   2   4     4.868290621061   108.33844416   188.39831856
 N      1   2   4     3.927054130658    28.11266989   278.49817327
 N      1   2   7     3.903965279330    52.64543608   178.30995509
 N      2   1   3     5.285274919591    79.11122508   178.07108493
 N      2   1   3     4.529937783755   132.44085963   244.05904431
 C      3   1   2     2.540514008634   118.55876772    77.80836560
 C      4   1   2     2.788749355845    95.28530670   272.22816181
 H     12   4   1     2.071386914841   112.41225705   196.01513049
 H     12   4   1     2.059959737127   108.26742615    78.81017835
 C      4   1   2     2.887449537866   123.28965311    33.87831465
 C     15   4   1     2.900755247321   108.67282692    63.98686273
 H     16  15   4     2.058596149606   111.17925472   302.03887942
 H     16  15   4     2.059635224568   109.22492171   183.11620585
 H     16  15   4     2.059736935837   113.22899630    64.48206604
 C     15   4   1     2.900591227530   109.89643239   306.34776375
 H     20  15   4     2.059828895456   113.17066954   289.90744982
 H     20  15   4     2.059919129894   108.86581309   171.72485397
 H     20  15   4     2.058514349661   111.45068479    52.98850589
 C     15   4   1     2.910788610441   112.23755720   185.30906291
 H     24  15   4     2.061812485916   112.87989289   300.59189430
 H     24  15   4     2.060714883871   109.41710576   181.77236034
 H     24  15   4     2.061050941904   112.26120346    63.19237344
 C      4   1   2     2.789014335484   100.16943789   159.53623616
 H     28   4   1     2.056903638142   111.55532808   213.90068111
 H     28   4   1     2.069597056055   109.36871235    98.61014259
 C      5   1   2     2.533988470277   120.44427241   257.52081182
 C      5   1   2     2.540267283467   118.40087921    76.63691214
 C     32   5   1     2.624559630662   120.52580180   186.84400943
 H     33  32   5     2.044531837925   120.04597142   180.28881011
 C     33  32   5     2.624952429118   119.06111313   359.73083274
 H     35  33  32     2.045602606850   120.32694823   178.63060547
 C     35  33  32     2.621017289139   119.28052737   356.29184583
 H     37  35  33     2.045011259588   120.76747574   183.89646028
 C      6   1   2     2.788266848320    94.95527450   246.32802736
 H     39   6   1     2.071610072749   112.39601624   195.82540673
 H     39   6   1     2.059804097561   108.24509740    78.60367763
 C      6   1   2     2.886886041877   123.39715417     7.78885899
 C     42   6   1     2.910772499311   112.29072573   185.29946809
 H     43  42   6     2.062119493233   112.97521708   300.07489508
 H     43  42   6     2.060741120887   109.37415117   181.26122612
 H     43  42   6     2.060870738901   112.22308755    62.75598400
 C     42   6   1     2.900678078757   109.84271060   306.34049069
 H     47  42   6     2.059562385833   113.08429386   289.86593832
 H     47  42   6     2.059818956527   108.96712685   171.62341472
 H     47  42   6     2.057998463081   111.34260838    52.83846645
 C     42   6   1     2.900903330031   108.66595353    63.96868938
 H     51  42   6     2.059692827473   113.25712387    64.17237766
 H     51  42   6     2.058948692675   111.09906069   301.72986181
 H     51  42   6     2.059658096596   109.21175605   182.88405067
 C      6   1   2     2.786614660104   100.14000962   133.59837827
 H     55   6   1     2.069825941398   109.40071620    98.62127027
 H     55   6   1     2.057233865132   111.58485276   213.85975666
 C      3   1   2     2.534805076307   120.34000744   258.44759194
 C     58   3   1     2.629557860703   120.27897112   171.79846590
 H     59  58   3     2.045047065103   119.92844808   181.69944617
 C     59  58   3     2.620523038090   119.29320892     3.37377096
 H     61  59  58     2.045636900004   120.35368530   179.84701804
 C     11   3   1     2.624160094337   120.59314049   186.64200575
 H     63  11   3     2.044620989056   120.08451473   180.34160685
 C      7   1   2     2.507925917350   129.18685356   181.15919251
 H     65   7   1     2.044481776188   116.88494009     0.79157019
 C     65   7   1     2.643274634675   122.60863589   180.31330714
 H     67  65   7     2.043161336773   119.50763875   179.80212932
 C     67  65   7     2.602608682863   119.28850887   359.62658150
 H     69  67  65     2.043838390882   121.26081472   179.99452806
 C     69  67  65     2.657564357218   119.24560183     0.00000000
 C      7   1   2     2.561911296278   111.88679975     1.10460095
 C      8   1   2     2.562908802629   112.30350717   359.58085699
 C      8   1   2     2.505433885488   128.84109199   178.73133292
 C     74   8   1     4.534165167488    92.40713996   181.07172877
 C     73   8   1     2.665379042969   122.75894461   179.27590593
 C      9   2   1     2.627649891712    57.60625089     1.77828379
 C      9   2   1     2.412848695570    61.52344024   175.43916455
 H     78   9   2     2.049720100903   117.55193432   173.99910192
 C     10   2   1     2.669649492246    37.16692862   240.67902119
 C     10   2   1     2.666117280232   104.04643871   136.86497394
 C     81  10   2     2.619099521641   128.43323630   233.01614140
 H     82  81  10     2.044264096590   122.00612013     0.14271710
 C     82  81  10     2.639733364701   117.59283288   180.01946288
 H     84  82  81     2.045380528133   119.15928214   179.90885083
 C     84  82  81     2.625911585979   121.14347533   359.76788414
 H     86  84  82     2.044363873668   119.87752877   180.03432877
 C     86  84  82     2.641884710290   120.32980000     0.42919768
 H     88  86  84     2.047172031912   119.95648006   179.41812768
 C     88  86  84     2.611012413870   118.98666954   359.78000119
 C     90  88  86     2.871366442037   130.72591195   175.91408419
 C     91  90  88     2.920914315882   108.62854603   281.96344917
 H     92  91  90     2.064142804126   111.78971215   179.93179218
 H     92  91  90     2.058946981889   108.64681944    61.38625968
 H     92  91  90     2.061074751762   112.09591326   302.76718785
 C     91  90  88     2.892389161347   114.62661262    44.29527092
 H     96  91  90     2.055263035903   112.25510882    52.28992197
 H     96  91  90     2.061089929998   109.13326201   292.66538024
 H     96  91  90     2.064338889757   111.33108599   174.57415519
 C     10   2   1     2.738795521707   103.73408206     8.53870649
 H    100  10   2     2.059415689601   109.57930959   170.83009682
 H    100  10   2     2.072790612715   112.17730096    50.51379226
 H    100  10   2     2.058093151905   110.02474326   288.80929171
 C      2   1   3     2.502879718171    19.74936487   182.83548390
 H     75  74   8     2.043436979873   152.18926423   179.51064401
 H     74   8   1     2.043717834942   117.07958929     1.76866030
 C     75  74   8     2.598582264172    30.50469428   179.72012085
 H    107  75  74     2.043582613665   121.06549242   179.88016060

---------------------
BASIS SET INFORMATION
---------------------
There are 5 groups of distinct atoms

 Group   1 Type Cu  : 17s11p5d1f contracted to 17s7p3d1f pattern {11111111111111111/3311111/311/1}
 Group   2 Type O   : 10s5p1d contracted to 6s2p1d pattern {511111/41/1}
 Group   3 Type N   : 10s5p1d contracted to 6s2p1d pattern {511111/41/1}
 Group   4 Type C   : 10s5p1d contracted to 6s2p1d pattern {511111/41/1}
 Group   5 Type H   : 6s1p contracted to 4s1p pattern {3111/1}

Atom   0Cu   basis set group =>   1
Atom   1O    basis set group =>   2
Atom   2N    basis set group =>   3
Atom   3N    basis set group =>   3
Atom   4N    basis set group =>   3
Atom   5N    basis set group =>   3
Atom   6N    basis set group =>   3
Atom   7N    basis set group =>   3
Atom   8N    basis set group =>   3
Atom   9N    basis set group =>   3
Atom  10C    basis set group =>   4
Atom  11C    basis set group =>   4
Atom  12H    basis set group =>   5
Atom  13H    basis set group =>   5
Atom  14C    basis set group =>   4
Atom  15C    basis set group =>   4
Atom  16H    basis set group =>   5
Atom  17H    basis set group =>   5
Atom  18H    basis set group =>   5
Atom  19C    basis set group =>   4
Atom  20H    basis set group =>   5
Atom  21H    basis set group =>   5
Atom  22H    basis set group =>   5
Atom  23C    basis set group =>   4
Atom  24H    basis set group =>   5
Atom  25H    basis set group =>   5
Atom  26H    basis set group =>   5
Atom  27C    basis set group =>   4
Atom  28H    basis set group =>   5
Atom  29H    basis set group =>   5
Atom  30C    basis set group =>   4
Atom  31C    basis set group =>   4
Atom  32C    basis set group =>   4
Atom  33H    basis set group =>   5
Atom  34C    basis set group =>   4
Atom  35H    basis set group =>   5
Atom  36C    basis set group =>   4
Atom  37H    basis set group =>   5
Atom  38C    basis set group =>   4
Atom  39H    basis set group =>   5
Atom  40H    basis set group =>   5
Atom  41C    basis set group =>   4
Atom  42C    basis set group =>   4
Atom  43H    basis set group =>   5
Atom  44H    basis set group =>   5
Atom  45H    basis set group =>   5
Atom  46C    basis set group =>   4
Atom  47H    basis set group =>   5
Atom  48H    basis set group =>   5
Atom  49H    basis set group =>   5
Atom  50C    basis set group =>   4
Atom  51H    basis set group =>   5
Atom  52H    basis set group =>   5
Atom  53H    basis set group =>   5
Atom  54C    basis set group =>   4
Atom  55H    basis set group =>   5
Atom  56H    basis set group =>   5
Atom  57C    basis set group =>   4
Atom  58C    basis set group =>   4
Atom  59H    basis set group =>   5
Atom  60C    basis set group =>   4
Atom  61H    basis set group =>   5
Atom  62C    basis set group =>   4
Atom  63H    basis set group =>   5
Atom  64C    basis set group =>   4
Atom  65H    basis set group =>   5
Atom  66C    basis set group =>   4
Atom  67H    basis set group =>   5
Atom  68C    basis set group =>   4
Atom  69H    basis set group =>   5
Atom  70C    basis set group =>   4
Atom  71C    basis set group =>   4
Atom  72C    basis set group =>   4
Atom  73C    basis set group =>   4
Atom  74C    basis set group =>   4
Atom  75C    basis set group =>   4
Atom  76C    basis set group =>   4
Atom  77C    basis set group =>   4
Atom  78H    basis set group =>   5
Atom  79C    basis set group =>   4
Atom  80C    basis set group =>   4
Atom  81C    basis set group =>   4
Atom  82H    basis set group =>   5
Atom  83C    basis set group =>   4
Atom  84H    basis set group =>   5
Atom  85C    basis set group =>   4
Atom  86H    basis set group =>   5
Atom  87C    basis set group =>   4
Atom  88H    basis set group =>   5
Atom  89C    basis set group =>   4
Atom  90C    basis set group =>   4
Atom  91C    basis set group =>   4
Atom  92H    basis set group =>   5
Atom  93H    basis set group =>   5
Atom  94H    basis set group =>   5
Atom  95C    basis set group =>   4
Atom  96H    basis set group =>   5
Atom  97H    basis set group =>   5
Atom  98H    basis set group =>   5
Atom  99C    basis set group =>   4
Atom 100H    basis set group =>   5
Atom 101H    basis set group =>   5
Atom 102H    basis set group =>   5
Atom 103C    basis set group =>   4
Atom 104H    basis set group =>   5
Atom 105H    basis set group =>   5
Atom 106C    basis set group =>   4
Atom 107H    basis set group =>   5
---------------------------------
AUXILIARY/J BASIS SET INFORMATION
---------------------------------
There are 5 groups of distinct atoms

 Group   1 Type Cu  : 19s5p5d3f3g contracted to 8s5p4d3f3g pattern {121111111/11111/2111/111/111}
 Group   2 Type O   : 12s5p4d2f1g contracted to 6s4p3d1f1g pattern {711111/2111/211/2/1}
 Group   3 Type N   : 12s5p4d2f1g contracted to 6s4p3d1f1g pattern {711111/2111/211/2/1}
 Group   4 Type C   : 12s5p4d2f1g contracted to 6s4p3d1f1g pattern {711111/2111/211/2/1}
 Group   5 Type H   : 5s2p1d contracted to 3s1p1d pattern {311/2/1}

Atom   0Cu   basis set group =>   1
Atom   1O    basis set group =>   2
Atom   2N    basis set group =>   3
Atom   3N    basis set group =>   3
Atom   4N    basis set group =>   3
Atom   5N    basis set group =>   3
Atom   6N    basis set group =>   3
Atom   7N    basis set group =>   3
Atom   8N    basis set group =>   3
Atom   9N    basis set group =>   3
Atom  10C    basis set group =>   4
Atom  11C    basis set group =>   4
Atom  12H    basis set group =>   5
Atom  13H    basis set group =>   5
Atom  14C    basis set group =>   4
Atom  15C    basis set group =>   4
Atom  16H    basis set group =>   5
Atom  17H    basis set group =>   5
Atom  18H    basis set group =>   5
Atom  19C    basis set group =>   4
Atom  20H    basis set group =>   5
Atom  21H    basis set group =>   5
Atom  22H    basis set group =>   5
Atom  23C    basis set group =>   4
Atom  24H    basis set group =>   5
Atom  25H    basis set group =>   5
Atom  26H    basis set group =>   5
Atom  27C    basis set group =>   4
Atom  28H    basis set group =>   5
Atom  29H    basis set group =>   5
Atom  30C    basis set group =>   4
Atom  31C    basis set group =>   4
Atom  32C    basis set group =>   4
Atom  33H    basis set group =>   5
Atom  34C    basis set group =>   4
Atom  35H    basis set group =>   5
Atom  36C    basis set group =>   4
Atom  37H    basis set group =>   5
Atom  38C    basis set group =>   4
Atom  39H    basis set group =>   5
Atom  40H    basis set group =>   5
Atom  41C    basis set group =>   4
Atom  42C    basis set group =>   4
Atom  43H    basis set group =>   5
Atom  44H    basis set group =>   5
Atom  45H    basis set group =>   5
Atom  46C    basis set group =>   4
Atom  47H    basis set group =>   5
Atom  48H    basis set group =>   5
Atom  49H    basis set group =>   5
Atom  50C    basis set group =>   4
Atom  51H    basis set group =>   5
Atom  52H    basis set group =>   5
Atom  53H    basis set group =>   5
Atom  54C    basis set group =>   4
Atom  55H    basis set group =>   5
Atom  56H    basis set group =>   5
Atom  57C    basis set group =>   4
Atom  58C    basis set group =>   4
Atom  59H    basis set group =>   5
Atom  60C    basis set group =>   4
Atom  61H    basis set group =>   5
Atom  62C    basis set group =>   4
Atom  63H    basis set group =>   5
Atom  64C    basis set group =>   4
Atom  65H    basis set group =>   5
Atom  66C    basis set group =>   4
Atom  67H    basis set group =>   5
Atom  68C    basis set group =>   4
Atom  69H    basis set group =>   5
Atom  70C    basis set group =>   4
Atom  71C    basis set group =>   4
Atom  72C    basis set group =>   4
Atom  73C    basis set group =>   4
Atom  74C    basis set group =>   4
Atom  75C    basis set group =>   4
Atom  76C    basis set group =>   4
Atom  77C    basis set group =>   4
Atom  78H    basis set group =>   5
Atom  79C    basis set group =>   4
Atom  80C    basis set group =>   4
Atom  81C    basis set group =>   4
Atom  82H    basis set group =>   5
Atom  83C    basis set group =>   4
Atom  84H    basis set group =>   5
Atom  85C    basis set group =>   4
Atom  86H    basis set group =>   5
Atom  87C    basis set group =>   4
Atom  88H    basis set group =>   5
Atom  89C    basis set group =>   4
Atom  90C    basis set group =>   4
Atom  91C    basis set group =>   4
Atom  92H    basis set group =>   5
Atom  93H    basis set group =>   5
Atom  94H    basis set group =>   5
Atom  95C    basis set group =>   4
Atom  96H    basis set group =>   5
Atom  97H    basis set group =>   5
Atom  98H    basis set group =>   5
Atom  99C    basis set group =>   4
Atom 100H    basis set group =>   5
Atom 101H    basis set group =>   5
Atom 102H    basis set group =>   5
Atom 103C    basis set group =>   4
Atom 104H    basis set group =>   5
Atom 105H    basis set group =>   5
Atom 106C    basis set group =>   4
Atom 107H    basis set group =>   5


           ************************************************************
           *        Program running with 16 parallel MPI-processes    *
           *              working on a common directory               *
           ************************************************************
------------------------------------------------------------------------------
                             ORCA STARTUP CALCULATIONS
                           -- RI-GTO INTEGRALS CHOSEN --
------------------------------------------------------------------------------
------------------------------------------------------------------------------
                   ___                                                        
                  /   \      - P O W E R E D   B Y -                         
                 /     \                                                     
                 |  |  |   _    _      __       _____    __    __             
                 |  |  |  | |  | |    /  \     |  _  \  |  |  /  |          
                  \  \/   | |  | |   /    \    | | | |  |  | /  /          
                 / \  \   | |__| |  /  /\  \   | |_| |  |  |/  /          
                |  |  |   |  __  | /  /__\  \  |    /   |      \           
                |  |  |   | |  | | |   __   |  |    \   |  |\   \          
                \     /   | |  | | |  |  |  |  | |\  \  |  | \   \       
                 \___/    |_|  |_| |__|  |__|  |_| \__\ |__|  \__/        
                                                                              
                      - O R C A' S   B I G   F R I E N D -                    
                                      &                                       
                       - I N T E G R A L  F E E D E R -                       
                                                                              
 v1 FN, 2020, v2 2021, v3 2022-2024                                           
------------------------------------------------------------------------------


----------------------
SHARK INTEGRAL PACKAGE
----------------------

Number of atoms                             ...    108
Number of basis functions                   ...   1359
Number of shells                            ...    783
Maximum angular momentum                    ...      3
Integral batch strategy                     ... SHARK/LIBINT Hybrid
RI-J (if used) integral strategy            ... SPLIT-RIJ (Revised 2003 algorithm where possible)
Printlevel                                  ...      1
Contraction scheme used                     ... SEGMENTED contraction
Prescreening option                         ... SCHWARTZ
   Thresh                                   ... 2.500e-11
   Tcut                                     ... 2.500e-12
   Tpresel                                  ... 2.500e-12 
Coulomb Range Separation                    ... NOT USED
Exchange Range Separation                   ... NOT USED
Multipole approximations                    ... NOT USED
Finite Nucleus Model                        ... NOT USED
CABS basis                                  ... NOT available
Auxiliary Coulomb fitting basis             ... AVAILABLE
   # of basis functions in Aux-J            ...   3358
   # of shells in Aux-J                     ...   1108
   Maximum angular momentum in Aux-J        ...      4
Auxiliary J/K fitting basis                 ... NOT available
Auxiliary Correlation fitting basis         ... NOT available
Auxiliary 'external' fitting basis          ... NOT available

Checking pre-screening integrals            ... done (  0.0 sec) Dimension = 783
Check shell pair data                       ... done (  0.0 sec)
Shell pair information
Shell pair cut-off parameter TPreSel        ...   2.5e-12
Total number of shell pairs                 ...    306936
Shell pairs after pre-screening             ...    138267
Total number of primitive shell pairs       ...    818326
Primitive shell pairs kept                  ...    244596
          la=0 lb=0:  62114 shell pairs
          la=1 lb=0:  47861 shell pairs
          la=1 lb=1:   8810 shell pairs
          la=2 lb=0:  13057 shell pairs
          la=2 lb=1:   5292 shell pairs
          la=2 lb=2:    807 shell pairs
          la=3 lb=0:    192 shell pairs
          la=3 lb=1:     99 shell pairs
          la=3 lb=2:     34 shell pairs
          la=3 lb=3:      1 shell pairs

Calculating one electron integrals          ... done (  0.2 sec)
Calculating RI/J V-Matrix + Cholesky decomp.... done (  0.8 sec)
Calculating Nuclear repulsion               ... done (  0.0 sec) ENN=   9361.058142631797 Eh

Diagonalization of the overlap matrix:
Smallest eigenvalue                        ... 1.414e-05
Time for diagonalization                   ...    0.241 sec
Threshold for overlap eigenvalues          ... 1.000e-07
Number of eigenvalues below threshold      ... 0
Time for construction of square roots      ...    0.237 sec
Total time needed                          ...    0.495 sec

-------------------
DFT GRID GENERATION
-------------------

General Integration Accuracy     IntAcc      ... 4.388
Radial Grid Type                 RadialGrid  ... OptM3 with GC (2021)
Angular Grid (max. ang.)         AngularGrid ... 4 (Lebedev-302)
Angular grid pruning method      GridPruning ... 4 (adaptive)
Weight generation scheme         WeightScheme... mBecke (2022)
Basis function cutoff            BFCut       ... 1.0000e-11
Integration weight cutoff        WCut        ... 1.0000e-14
Partially contracted basis set               ... off
Rotationally invariant grid construction     ... off
Angular grids for H and He will be reduced by one unit
Core-polarized basis detected: some atoms will have their core
                               angular grid increased.
Steep s-basis detected: some atoms will have their radial
                        grid points doubled.

SpecialGrid => Setting IntAcc for atom type =   7 to   8.0000
SpecialGrid => Setting IntAcc for atom type =  29 to   9.0000
SpecialGrid => Setting IntAcc for atom type =   7 to   8.0000
SpecialGrid => Setting IntAcc for atom type =   7 to   8.0000
SpecialGrid => Setting IntAcc for atom type =   7 to   8.0000
SpecialGrid => Setting IntAcc for atom type =   7 to   8.0000
SpecialGrid => Setting IntAcc for atom type =   7 to   8.0000
SpecialGrid => Setting IntAcc for atom type =   7 to   8.0000
SpecialGrid => Setting IntAcc for atom type =   7 to   8.0000
Total number of grid points                  ...   147752
Total number of batches                      ...     2366
Average number of points per batch           ...       62
Average number of grid points per atom       ...     1368

--------------------
COSX GRID GENERATION
--------------------

GRIDX 1
-------
General Integration Accuracy     IntAcc      ... 3.816
Radial Grid Type                 RadialGrid  ... OptM3 with GC (2021)
Angular Grid (max. ang.)         AngularGrid ... 1 (Lebedev-50)
Angular grid pruning method      GridPruning ... 4 (adaptive)
Weight generation scheme         WeightScheme... mBecke (2022)
Basis function cutoff            BFCut       ... 1.0000e-11
Integration weight cutoff        WCut        ... 1.0000e-14
Partially contracted basis set               ... on
Rotationally invariant grid construction     ... off
Angular grids for H and He will be reduced by one unit
Core-polarized basis detected: some atoms will have their core
                               angular grid increased.
Steep s-basis detected: some atoms will have their radial
                        grid points doubled.

SpecialGrid => Setting IntAcc for atom type =   7 to   8.0000
SpecialGrid => Setting IntAcc for atom type =  29 to   9.0000
SpecialGrid => Setting IntAcc for atom type =   7 to   8.0000
SpecialGrid => Setting IntAcc for atom type =   7 to   8.0000
SpecialGrid => Setting IntAcc for atom type =   7 to   8.0000
SpecialGrid => Setting IntAcc for atom type =   7 to   8.0000
SpecialGrid => Setting IntAcc for atom type =   7 to   8.0000
SpecialGrid => Setting IntAcc for atom type =   7 to   8.0000
SpecialGrid => Setting IntAcc for atom type =   7 to   8.0000
Total number of grid points                  ...    95463
Total number of batches                      ...      798
Average number of points per batch           ...      119
Average number of grid points per atom       ...      884
UseSFitting                                  ... on

GRIDX 2
-------
General Integration Accuracy     IntAcc      ... 4.020
Radial Grid Type                 RadialGrid  ... OptM3 with GC (2021)
Angular Grid (max. ang.)         AngularGrid ... 2 (Lebedev-110)
Angular grid pruning method      GridPruning ... 4 (adaptive)
Weight generation scheme         WeightScheme... mBecke (2022)
Basis function cutoff            BFCut       ... 1.0000e-11
Integration weight cutoff        WCut        ... 1.0000e-14
Partially contracted basis set               ... on
Rotationally invariant grid construction     ... off
Angular grids for H and He will be reduced by one unit
Core-polarized basis detected: some atoms will have their core
                               angular grid increased.
Steep s-basis detected: some atoms will have their radial
                        grid points doubled.

SpecialGrid => Setting IntAcc for atom type =   7 to   8.0000
SpecialGrid => Setting IntAcc for atom type =  29 to   9.0000
SpecialGrid => Setting IntAcc for atom type =   7 to   8.0000
SpecialGrid => Setting IntAcc for atom type =   7 to   8.0000
SpecialGrid => Setting IntAcc for atom type =   7 to   8.0000
SpecialGrid => Setting IntAcc for atom type =   7 to   8.0000
SpecialGrid => Setting IntAcc for atom type =   7 to   8.0000
SpecialGrid => Setting IntAcc for atom type =   7 to   8.0000
SpecialGrid => Setting IntAcc for atom type =   7 to   8.0000
Total number of grid points                  ...    95463
Total number of batches                      ...      798
Average number of points per batch           ...      119
Average number of grid points per atom       ...      884
UseSFitting                                  ... on

GRIDX 3
-------
General Integration Accuracy     IntAcc      ... 4.338
Radial Grid Type                 RadialGrid  ... OptM3 with GC (2021)
Angular Grid (max. ang.)         AngularGrid ... 3 (Lebedev-194)
Angular grid pruning method      GridPruning ... 4 (adaptive)
Weight generation scheme         WeightScheme... mBecke (2022)
Basis function cutoff            BFCut       ... 1.0000e-11
Integration weight cutoff        WCut        ... 1.0000e-14
Partially contracted basis set               ... on
Rotationally invariant grid construction     ... off
Angular grids for H and He will be reduced by one unit
Core-polarized basis detected: some atoms will have their core
                               angular grid increased.
Steep s-basis detected: some atoms will have their radial
                        grid points doubled.

SpecialGrid => Setting IntAcc for atom type =   7 to   8.0000
SpecialGrid => Setting IntAcc for atom type =  29 to   9.0000
SpecialGrid => Setting IntAcc for atom type =   7 to   8.0000
SpecialGrid => Setting IntAcc for atom type =   7 to   8.0000
SpecialGrid => Setting IntAcc for atom type =   7 to   8.0000
SpecialGrid => Setting IntAcc for atom type =   7 to   8.0000
SpecialGrid => Setting IntAcc for atom type =   7 to   8.0000
SpecialGrid => Setting IntAcc for atom type =   7 to   8.0000
SpecialGrid => Setting IntAcc for atom type =   7 to   8.0000
Total number of grid points                  ...    95463
Total number of batches                      ...      798
Average number of points per batch           ...      119
Average number of grid points per atom       ...      884
UseSFitting                                  ... on
Initializing property integral containers    ... done (  0.0 sec)

SHARK setup successfully completed in  12.2 seconds

Maximum memory used throughout the entire STARTUP-calculation: 330.8 MB


           ************************************************************
           *        Program running with 16 parallel MPI-processes    *
           *              working on a common directory               *
           ************************************************************
-------------------------------------------------------------------------------
                                 ORCA GUESS
                   Start orbitals & Density for SCF / CASSCF
-------------------------------------------------------------------------------

------------
SCF SETTINGS
------------
Hamiltonian:
 Density Functional     Method          .... DFT(GTOs)
 Exchange Functional    Exchange        .... B88
   X-Alpha parameter    XAlpha          ....  0.666667
   Becke's b parameter  XBeta           ....  0.004200
 Correlation Functional Correlation     .... LYP
 LDA part of GGA corr.  LDAOpt          .... VWN-5
 Gradients option       PostSCFGGA      .... off
 Hybrid DFT is turned on
   Fraction HF Exchange ScalHFX         ....  0.200000
   Scaling of DF-GGA-X  ScalDFX         ....  0.720000
   Scaling of DF-GGA-C  ScalDFC         ....  0.810000
   Scaling of DF-LDA-C  ScalLDAC        ....  1.000000
   Perturbative correction              ....  0.000000
   NL short-range parameter             ....  4.800000
 RI-approximation to the Coulomb term is turned on
   Number of AuxJ basis functions       .... 3358
   RIJ-COSX (HFX calculated with COS-X)).... on


General Settings:
 Integral files         IntName         .... system
 Hartree-Fock type      HFTyp           .... UHF
 Total Charge           Charge          ....    2
 Multiplicity           Mult            ....    2
 Number of Electrons    NEL             ....  419
 Basis Dimension        Dim             .... 1359
 Nuclear Repulsion      ENuc            ....   9361.0581426318 Eh

Convergence Acceleration:
 AO-DIIS                CNVDIIS         .... on
   Start iteration      DIISMaxIt       ....    12
   Startup error        DIISStart       ....  0.200000
   # of expansion vecs  DIISMaxEq       ....     5
   Bias factor          DIISBfac        ....   1.050
   Max. coefficient     DIISMaxC        ....  10.000
 MO-DIIS                CNVKDIIS        .... off
 Trust-Rad. Augm. Hess. CNVTRAH         .... auto
   Auto Start mean grad. ratio tolernc. ....  1.125000
   Auto Start start iteration           ....    50
   Auto Start num. interpolation iter.  ....    10
   Max. Number of Micro iterations      ....    24
   Max. Number of Macro iterations      .... Maxiter - #DIIS iter
   Number of Davidson start vectors     ....     2
   Converg. threshold    (grad. norm)   ....   1.000e-05
   Grad. Scal. Fac. for Micro threshold ....   0.100
   Minimum threshold for Micro iter.    ....   1.000e-02
   NR start threshold (gradient norm)   ....   1.000e-04
   Initial trust radius                 ....   0.400
   Minimum AH scaling param. (alpha)    ....   1.000
   Maximum AH scaling param. (alpha)    .... 1000.000
   Quad. conv. algorithm                .... NR
   White noise on init. David. guess    .... on
   Maximum white noise                  ....   0.010
   Pseudo random numbers                .... off
   Inactive MOs                         .... canonical
   Orbital update algorithm             .... Taylor
   Preconditioner                       .... Diag
   Full preconditioner red. dimension   ....   250
 SOSCF                  CNVSOSCF        .... on
   Start iteration      SOSCFMaxIt      ....   150
   Startup grad/error   SOSCFStart      ....  0.003300
   Hessian update       SOSCFHessUp     .... L-BFGS
 Level Shifting         CNVShift        .... on
   Level shift para.    LevelShift      ....    0.2500
   Turn off err/grad.   ShiftErr        ....    0.0010
 Zerner damping         CNVZerner       .... off
 Static damping         CNVDamp         .... on
   Fraction old density DampFac         ....    0.7000
   Max. Damping (<1)    DampMax         ....    0.9800
   Min. Damping (>=0)   DampMin         ....    0.0000
   Turn off err/grad.   DampErr         ....    0.1000

SCF Procedure:
 Maximum # iterations   MaxIter         ....   125
 SCF integral mode      SCFMode         .... Direct
   Integral package                     .... SHARK and LIBINT hybrid scheme
 Reset frequency        DirectResetFreq ....    20
 Integral Threshold     Thresh          ....  2.500e-11 Eh
 Primitive CutOff       TCut            ....  2.500e-12 Eh

Convergence Tolerance:
 Convergence Check Mode ConvCheckMode   .... Total+1el-Energy
 Convergence forced     ConvForced      .... 0
 Energy Change          TolE            ....  1.000e-08 Eh
 1-El. energy change                    ....  1.000e-05 Eh
 Orbital Gradient       TolG            ....  1.000e-05
 Orbital Rotation angle TolX            ....  1.000e-05
 DIIS Error             TolErr          ....  5.000e-07

------------------------------
INITIAL GUESS: MODEL POTENTIAL
------------------------------
Loading Hartree-Fock densities                     ... done
Calculating cut-offs                               ... done
Initializing the effective Hamiltonian             ... done
Setting up the integral package (SHARK)            ... done
Starting the Coulomb interaction                   ... done (   2.5 sec)
Making the grid                                    ... done (   1.3 sec)
Mapping shells                                     ... done
Starting the XC term evaluation                    ... done (   0.6 sec)
  promolecular density results
     # of electrons  =    421.006174439
     EX              =   -378.978170154
     EC              =    -14.696250528
     EX+EC           =   -393.674420682
Transforming the Hamiltonian                       ... done (   0.2 sec)
Diagonalizing the Hamiltonian                      ... done (   0.3 sec)
Back transforming the eigenvectors                 ... done (   0.1 sec)
Now organizing SCF variables                       ... done
                      ------------------
                      INITIAL GUESS DONE (   5.3 sec)
                      ------------------
             **** ENERGY FILE WAS UPDATED (system.en.tmp) ****
Finished Guess after   6.5 sec
Maximum memory used throughout the entire GUESS-calculation: 201.1 MB


           ************************************************************
           *        Program running with 16 parallel MPI-processes    *
           *              working on a common directory               *
           ************************************************************

-------------------------------------------------------------------------------------------
                                      ORCA LEAN-SCF
                              memory conserving SCF solver
-------------------------------------------------------------------------------------------

----------------------------------------D-I-I-S--------------------------------------------
Iteration    Energy (Eh)           Delta-E    RMSDP     MaxDP     DIISErr   Damp  Time(sec)
-------------------------------------------------------------------------------------------
               ***  Starting incremental Fock matrix formation  ***
    1    -3935.2839721934797126     0.00e+00  2.34e-03  8.18e-01  2.81e-01  0.700  33.7
Warning: op=0 Small HOMO/LUMO gap (   0.032) - skipping pre-diagonalization
         Will do a full diagonalization
    2    -3935.7934184848563746    -5.09e-01  1.77e-03  8.23e-01  1.97e-01  0.700  27.2
                               ***Turning on AO-DIIS***
    3    -3936.0083910133635072    -2.15e-01  1.17e-03  6.03e-01  1.38e-01  0.700  25.0
    4    -3936.1341033997869090    -1.26e-01  7.46e-04  3.65e-01  9.65e-02  0.700  24.1
    5    -3936.2177281876374764    -8.36e-02  1.73e-03  8.30e-01  6.77e-02  0.000  22.4
    6    -3936.4098616480277997    -1.92e-01  9.20e-05  2.37e-02  5.28e-03  0.000  24.5
    7    -3936.4101462569014984    -2.85e-04  2.57e-05  4.52e-03  6.57e-03  0.000  20.3
                              *** Initializing SOSCF ***
---------------------------------------S-O-S-C-F--------------------------------------
Iteration    Energy (Eh)           Delta-E    RMSDP     MaxDP     MaxGrad    Time(sec)
--------------------------------------------------------------------------------------
    8    -3936.4104273506145546    -2.81e-04  1.63e-05  7.89e-03  2.59e-03    21.3
               *** Restarting incremental Fock matrix formation ***
    9    -3936.4104838463463238    -5.65e-05  1.93e-05  8.09e-03  8.49e-04    32.6
   10    -3936.4104971105025470    -1.33e-05  1.60e-05  8.04e-03  6.15e-04    20.8
   11    -3936.4105111045737431    -1.40e-05  6.44e-06  1.76e-03  2.50e-04    20.6
   12    -3936.4105104773243511     6.27e-07  4.27e-06  1.83e-03  3.14e-04    18.1
   13    -3936.4105121940956451    -1.72e-06  5.23e-06  2.85e-03  8.33e-05    16.6
   14    -3936.4105123187691788    -1.25e-07  2.71e-06  1.89e-03  8.58e-05    16.3
   15    -3936.4105126221820683    -3.03e-07  5.67e-06  4.22e-03  3.06e-05    16.8
   16    -3936.4105125568930816     6.53e-08  2.31e-06  1.55e-03  1.65e-05    14.9
   17    -3936.4105127089533198    -1.52e-07  1.34e-06  4.47e-04  8.69e-06    13.6
   18    -3936.4105126762915461     3.27e-08  8.61e-07  5.96e-04  4.63e-06    13.4
   19    -3936.4105125646037777     1.12e-07  1.58e-06  6.42e-04  1.97e-06    12.2
                  *** Gradient check signals convergence ***

               *****************************************************
               *                     SUCCESS                       *
               *           SCF CONVERGED AFTER  19 CYCLES          *
               *****************************************************

Recomputing exchange energy using gridx3       ... done (   24.238 sec)
Old exchange energy                            :    -76.665533210 Eh
New exchange energy                            :    -76.665533222 Eh
Exchange energy change after final integration :     -0.000000012 Eh
Total energy after final integration           :  -3936.410512577 Eh
             **** ENERGY FILE WAS UPDATED (system.en.tmp) ****

----------------
TOTAL SCF ENERGY
----------------

Total Energy       :      -3936.41051257659001 Eh         -107115.17568 eV

Components:
Nuclear Repulsion  :       9361.05814263179673 Eh          254727.34215 eV
Electronic Energy  :     -13297.46865519640050 Eh         -361842.51783 eV
One Electron Energy:     -23978.45383178450720 Eh         -652486.90056 eV
Two Electron Energy:      10680.98517658810670 Eh          290644.38273 eV

Virial components:
Potential Energy   :      -7855.50347931032047 Eh         -213759.11698 eV
Kinetic Energy     :       3919.09296673373001 Eh          106643.94130 eV
Virial Ratio       :          2.00441876372667

DFT components:
N(Alpha)           :      210.023332215324 electrons
N(Beta)            :      209.023248545917 electrons
N(Total)           :      419.046580761241 electrons
E(X)               :     -304.673405484001 Eh       
E(C)               :      -17.169882957023 Eh       
E(XC)              :     -321.843288441024 Eh       

---------------
SCF CONVERGENCE
---------------

  Last Energy change         ...   -1.1169e-07  Tolerance :   1.0000e-08
  Last MAX-Density change    ...    6.4219e-04  Tolerance :   1.0000e-07
  Last RMS-Density change    ...    1.5836e-06  Tolerance :   5.0000e-09
  Last DIIS Error            ...    2.5924e-03  Tolerance :   5.0000e-07
  Last Orbital Gradient      ...    1.9714e-06  Tolerance :   1.0000e-05
  Last Orbital Rotation      ...    1.2755e-05  Tolerance :   1.0000e-05


----------------------
UHF SPIN CONTAMINATION
----------------------

Warning: in a DFT calculation there is little theoretical justification to 
         calculate <S**2> as in Hartree-Fock theory. We will do it anyways
[...]
     X        0.3039461       0.9406589       0.1509226
     Y        0.7640367      -0.3353112       0.5511935
     Z        0.5690911      -0.0522227      -0.8206145

 Note: Tensor is right-handed

 Contributions:
 V(El )       0.2347015       0.6684848  -0.9031863
 V(Nuc)       0.2568201      -0.0220870  -0.2347331

 Quadrupole tensor eigenvalues (in MHz;Q= 0.0204 I=  1.0)
  e**2qQ            =    -5.465068 MHz 
  e**2qQ/(4I*(2I-1))=    -1.366267 MHz 
  eta               =     0.136105
  NOTE: the diagonal representation of the SH term I*Q*I = e**2qQ/(4I(2I-1))*[-(1-eta),-(1+eta),2]

 -----------------------------------------------------------
 Nucleus   6N : A  : Isotope=   14 I=  1.0 P= 38.5677 MHz/au**3 
                Q  : Isotope=   14 I=  1.0 Q=  0.0204 barn      
                HFC: iso  =YES dip=YES orb=YES gauge=YES    
                EFG: fgrad=YES rho= NO                      
 -----------------------------------------------------------

 Total HFC matrix (all values in MHz): 
 ----------------------------------------------------------------
                32.2426               1.0531               2.8172
                 1.0421              32.8681               2.4138
                 2.7988               2.4208              41.0473

 A(FC)          35.4773              35.4773              35.4773
 A(SD)          -4.0403              -3.0226               7.0629
 A(ORB+DIA)     -0.1315              -0.1736               0.0312    A(PC) =   -0.0913
 A(ORB)         -0.1311              -0.1733               0.0309    A(PC) =   -0.0912
 A(DIA)         -0.0004              -0.0003               0.0003    A(PC) =   -0.0001
             ----------           ----------           ----------
 A(Tot)         31.3054              32.2811              42.5714    A(iso)=   35.3860
 Orientation: 
  X           0.9232524            0.2645691            0.2785823
  Y          -0.3377064            0.9046013            0.2600979
  Z          -0.1831921           -0.3342151            0.9245220

Notes:  (1) The A matrix conforms to the "SAI" spin Hamiltonian convention.
        (2) Tensor is right-handed.

 Raw EFG matrix (all values in a.u.**-3):
 ------------------------------------------------------
              0.2387189      -0.0999839      -0.2715571
             -0.0999839       0.2043482      -0.1817274
             -0.2715571      -0.1817274      -0.4430671

 V(Tot)       0.2445304       0.3461846      -0.5907150
 Orientation: 
     X        0.2520885       0.9102982      -0.3283421
     Y        0.9063458      -0.3409948      -0.2495193
     Z       -0.3391000      -0.2346905      -0.9110058

 Note: Tensor is right-handed

 Contributions:
 V(El )       1.8201664      -0.1607519  -1.6594145
 V(Nuc)      -1.5756359       0.5069365   1.0686994

 Quadrupole tensor eigenvalues (in MHz;Q= 0.0204 I=  1.0)
  e**2qQ            =    -2.837018 MHz 
  e**2qQ/(4I*(2I-1))=    -0.709255 MHz 
  eta               =     0.172087
  NOTE: the diagonal representation of the SH term I*Q*I = e**2qQ/(4I(2I-1))*[-(1-eta),-(1+eta),2]

 -----------------------------------------------------------
 Nucleus   7N : A  : Isotope=   14 I=  1.0 P= 38.5677 MHz/au**3 
                Q  : Isotope=   14 I=  1.0 Q=  0.0204 barn      
                HFC: iso  =YES dip=YES orb=YES gauge=YES    
                EFG: fgrad=YES rho= NO                      
 -----------------------------------------------------------

 Total HFC matrix (all values in MHz): 
 ----------------------------------------------------------------
                37.3364              -3.2551              -4.7479
                -3.2546              34.4651               2.5170
                -4.7326               2.5132              35.3944

 A(FC)          35.8316              35.8316              35.8316
 A(SD)          -4.1683              -3.1198               7.2882
 A(ORB+DIA)     -0.1464              -0.1837               0.0311    A(PC) =   -0.0997
 A(ORB)         -0.1460              -0.1834               0.0308    A(PC) =   -0.0995
 A(DIA)         -0.0004              -0.0003               0.0003    A(PC) =   -0.0001
             ----------           ----------           ----------
 A(Tot)         31.5169              32.5281              43.1509    A(iso)=   35.7320
 Orientation: 
  X          -0.6584887            0.2692827            0.7027656
  Y          -0.0886712            0.8995311           -0.4277630
  Z          -0.7473487           -0.3439922           -0.5684535

Notes:  (1) The A matrix conforms to the "SAI" spin Hamiltonian convention.
        (2) Tensor is right-handed.

 Raw EFG matrix (all values in a.u.**-3):
 ------------------------------------------------------
             -0.1736304       0.2642784       0.3658358
              0.2642784       0.0979267      -0.1738576
              0.3658358      -0.1738576       0.0757037

 V(Tot)       0.2434539       0.3389108      -0.5823647
 Orientation: 
     X        0.2715816      -0.6144485      -0.7407405
     Y        0.9001233      -0.1102349       0.4214574
     Z       -0.3406193      -0.7812178       0.5231416

 Note: Tensor is right-handed

 Contributions:
 V(El )       1.8216420      -0.1862221  -1.6354198
 V(Nuc)      -1.5781881       0.5251330   1.0530551

 Quadrupole tensor eigenvalues (in MHz;Q= 0.0204 I=  1.0)
  e**2qQ            =    -2.796914 MHz 
  e**2qQ/(4I*(2I-1))=    -0.699229 MHz 
  eta               =     0.163913
  NOTE: the diagonal representation of the SH term I*Q*I = e**2qQ/(4I(2I-1))*[-(1-eta),-(1+eta),2]

 -----------------------------------------------------------
 Nucleus   8N : A  : Isotope=   14 I=  1.0 P= 38.5677 MHz/au**3 
                Q  : Isotope=   14 I=  1.0 Q=  0.0204 barn      
                HFC: iso  =YES dip=YES orb=YES gauge=YES    
                EFG: fgrad=YES rho= NO                      
 -----------------------------------------------------------

 Total HFC matrix (all values in MHz): 
 ----------------------------------------------------------------
                 0.0936              -0.0200              -0.0335
                -0.0199               0.0837               0.0317
                -0.0338               0.0317               0.1331

 A(FC)           0.1040               0.1040               0.1040
 A(SD)          -0.0350              -0.0287               0.0638
 A(ORB+DIA)     -0.0020              -0.0007               0.0010    A(PC) =   -0.0006
 A(ORB)         -0.0020              -0.0007               0.0010    A(PC) =   -0.0006
 A(DIA)         -0.0000              -0.0000               0.0000    A(PC) =   -0.0000
             ----------           ----------           ----------
 A(Tot)          0.0670               0.0746               0.1688    A(iso)=    0.1035
 Orientation: 
  X           0.3617661           -0.8107998           -0.4601402
  Y           0.8987989            0.1722691            0.4030929
  Z          -0.2475597           -0.5593988            0.7910671

Notes:  (1) The A matrix conforms to the "SAI" spin Hamiltonian convention.
        (2) Tensor is right-handed.

 Raw EFG matrix (all values in a.u.**-3):
 ------------------------------------------------------
             -0.6705388       0.2899499      -0.5672514
              0.2899499       0.5209308       0.0682575
             -0.5672514       0.0682575       0.1496080

 V(Tot)       0.4100370       0.6049773      -1.0150143
 Orientation: 
     X       -0.3474635       0.3262476      -0.8791084
     Y        0.3811661       0.9057122       0.1854664
     Z        0.8567272      -0.2706435      -0.4390565

 Note: Tensor is right-handed

 Contributions:
 V(El )      -0.7785315       1.8456502  -1.0671187
 V(Nuc)       1.1885685      -1.2406729   0.0521044

 Quadrupole tensor eigenvalues (in MHz;Q= 0.0204 I=  1.0)
  e**2qQ            =    -4.874794 MHz 
  e**2qQ/(4I*(2I-1))=    -1.218698 MHz 
  eta               =     0.192057
  NOTE: the diagonal representation of the SH term I*Q*I = e**2qQ/(4I(2I-1))*[-(1-eta),-(1+eta),2]

 -----------------------------------------------------------
 Nucleus   9N : A  : Isotope=   14 I=  1.0 P= 38.5677 MHz/au**3 
                Q  : Isotope=   14 I=  1.0 Q=  0.0204 barn      
                HFC: iso  =YES dip=YES orb=YES gauge=YES    
                EFG: fgrad=YES rho= NO                      
 -----------------------------------------------------------

 Total HFC matrix (all values in MHz): 
 ----------------------------------------------------------------
                 0.0239              -0.0109              -0.0205
                -0.0109               0.0038               0.0113
                -0.0204               0.0117               0.0385

 A(FC)           0.0222               0.0222               0.0222
 A(SD)          -0.0227              -0.0122               0.0349
 A(ORB+DIA)     -0.0007              -0.0001               0.0004    A(PC) =   -0.0001
 A(ORB)         -0.0007              -0.0001               0.0004    A(PC) =   -0.0001
 A(DIA)         -0.0000              -0.0000               0.0000    A(PC) =   -0.0000
             ----------           ----------           ----------
 A(Tot)         -0.0011               0.0099               0.0575    A(iso)=    0.0221
 Orientation: 
  X           0.3762633           -0.7348935           -0.5642317
  Y           0.9245637            0.2583367            0.2800789
  Z          -0.0600664           -0.6270516            0.7766584

Notes:  (1) The A matrix conforms to the "SAI" spin Hamiltonian convention.
        (2) Tensor is right-handed.

 Raw EFG matrix (all values in a.u.**-3):
 ------------------------------------------------------
             -0.5368361       0.4453709       0.6609394
              0.4453709       0.4134613      -0.3281539
              0.6609394      -0.3281539       0.1233747

 V(Tot)       0.5134744       0.6277522      -1.1412265
 Orientation: 
     X       -0.6026189       0.0443962       0.7967933
     Y       -0.3786738       0.8629782      -0.3344769
     Z       -0.7024647      -0.5032868      -0.5032353

 Note: Tensor is right-handed

 Contributions:
 V(El )      -0.0964388       0.0677183   0.0287205
 V(Nuc)       0.6099132       0.5600338  -1.1699470

 Quadrupole tensor eigenvalues (in MHz;Q= 0.0204 I=  1.0)
  e**2qQ            =    -5.480951 MHz 
  e**2qQ/(4I*(2I-1))=    -1.370238 MHz 
  eta               =     0.100136
  NOTE: the diagonal representation of the SH term I*Q*I = e**2qQ/(4I(2I-1))*[-(1-eta),-(1+eta),2]


Hyperfine and quadrupole coupling calculation done in  62.9 sec 
----------------------------------------------------------------------------
                           ORCA EULER ANGLE PROGRAM
----------------------------------------------------------------------------

Only g-tensor available        -->  using g-tensor as reference tensor

Reference tensor               ...  g

g-tensor ordering              ...  |g_min> --> |gx>
                                    |g_mid> --> |gy>
                                    |g_max> --> |gz>

A- and EFG-tensor ordering     ...  the axes |Ax>, |Qx>, |Ay>, etc. are assigned
                                    such that the Euler rotation is minimal. You
                                    can find the respective eigenvalues as Ax,
                                    EFGx, Ay, etc. in the tables below.
                                    The relation of |Ax>, |Ay>,  etc. to Amin, Amid, etc.
                                    (as printed in the ORCA EPR/NMR CALCULATION Output)
                                    is obtained in the detailed printout.

Euler rotation around          ...  z - y - z
   First rotation              -->  by alpha around z
   Second rotation             -->  by beta around y'
   Third rotation              -->  by gamma around z''
   Positive / Negative angle   -->  clockwise / counterclockwise rotation

Plot EFG-tensors                    (-)
Plot HFC-tensors                    (-)
Detailed Printout                   (-)

-------------------------------------------------------------------------
          Euler rotation of hyperfine tensor to g-tensor
-------------------------------------------------------------------------

-------------------------------------------------------------------
 Atom  |   Alpha    Beta    Gamma   |   Ax       Ay       Az 
       |          [degrees]         |           [MHz]         
-------------------------------------------------------------------
  0Cu      49.4      0.4    -46.1      44.68    37.64  -553.67
  2N      -94.6     11.5     81.0      52.41    39.72    38.09
  3N     -170.3     12.2   -154.4      -1.02    -0.95    -0.33
  4N     -176.0     11.2    174.2      40.14    53.05    38.49
  5N        0.3     11.8     44.5      -1.04    -0.97    -0.37
  6N       34.1      1.9    -55.0      31.31    42.57    32.28
  7N       41.6      2.1    -36.3      43.15    31.52    32.53
  8N       95.4      9.3    -71.1       0.17     0.07     0.07
  9N      117.5     18.4    -97.6       0.06     0.01    -0.00
-------------------------------------------------------------------


-------------------------------------------------------------------------------
    Euler rotation of Electric Field Gradient (EFG) tensor to g-tensor
-------------------------------------------------------------------------------

-------------------------------------------------------------------
 Atom  |   Alpha    Beta    Gamma  |   EFGx     EFGy     EFGz
       |          [degrees]        |         [a.u.**-3]       
-------------------------------------------------------------------
  0Cu      86.6      0.7    -47.5      0.90     1.11    -2.01
  2N     -116.4      2.5    102.1     -0.62     0.23     0.39
  3N      174.9     34.7   -161.7      0.49     0.65    -1.14
  4N     -156.8      2.1    156.0      0.23    -0.62     0.39
  5N      -83.3     34.9     56.4      0.65     0.49    -1.14
  6N       37.3      1.2    -55.2      0.35    -0.59     0.24
  7N       43.2      2.3    -41.3     -0.58     0.34     0.24
  8N      105.3      6.9    -73.5      0.41    -1.02     0.60
  9N     -103.1     14.4    101.1     -1.14     0.51     0.63
-------------------------------------------------------------------


Maximum memory used throughout the entire PROP-calculation: 446.6 MB

--------------------------------
SUGGESTED CITATIONS FOR THIS RUN
--------------------------------

Below you find a list of papers that are relevant to this ORCA run
We neither can nor want to force you to cite these papers, but we appreciate if you do
You receive ORCA, which is the product of decades of hard work by many enthusiastic individuals, for free
The only thing we kindly ask in return is that you cite our papers,
We deeply appreciate it, if you show your appreciation for ORCA by not just citing the generic ORCA reference.

Please note that relegating all ORCA citations to the supporting information does *not* help us.
SI sections are not indexed - citations you put there will not count into any citation statistics
But we need these citations in order to attract the funding resources that allow us to do what we are doing

Therefore, if you are a happy ORCA user, please consider citing a few of the papers listed below in the main body of your paper

In addition to the list printed below, the program has created the file system.bibtex that contains the list in bibtex format
You can import this file easily into all common literature databanks and citation aid programs


List of essential papers. We consider these as the minimum necessary citations

  1. Neese,F.
     Software update: the ORCA program system, version 5.0
     WIRES Comput. Molec. Sci., 2022 12(1)e1606
     doi.org/10.1002/wcms.1606

List of papers to cite with high priority. The work reported in these papers was absolutely
necessary for this run to complete.
Our perspective: the developers of density functionals and basis sets usually get cited in chemistry papers
Good! But without the algorithms to do something with them, the functionals or basis sets would not do anything.
Hence, in our opinion, the algorithm design and method developments papers are equally worthy of getting cited

  1. Neese,F.
     Prediction of electron paramagnetic resonance g values using coupled perturbed Hartree-Fock and Kohn-Sham theory
     J. Chem. Phys., 2001 115(24)11080-11096
     doi.org/10.1063/1.1419058
  2. Neese,F.
     An improvement of the resolution of the identity approximation for the formation of the Coulomb matrix
     J. Comp. Chem., 2003 24(14)1740-1747
     doi.org/10.1002/jcc.10318
  3. Neese,F.
     Metal and ligand hyperfine couplings in transition metal complexes: The effect of spin-orbit coupling as studied by coupled perturbed Kohn-Sham theory
     J. Chem. Phys., 2003 118(9)3939-3948
     doi.org/10.1063/1.1540619
  4. Neese,F.
     Efficient and accurate approximations to the molecular spin-orbit coupling operator and their use in molecular g-tensor calculations
     J. Chem. Phys., 2005 122(3)Art. No. 034107
     doi.org/10.1063/1.1829047
  5. Neese,F.; Wennmohs,F.; Hansen,A.; Becker,U.
     Efficient, approximate and parallel Hartree-Fock and hybrid DFT calculations. A 'chain-of-spheres' algorithm for the Hartree-Fock exchange
     Chem. Phys., 2009 356(1-3)98-109
     doi.org/10.1016/j.chemphys.2008.10.036
  6. Helmich-Paris,B.; de Souza,B.; Neese,F.; Izsák,R.
     An improved chain of spheres for exchange algorithm
     J. Chem. Phys., 2021 155 104109
     doi.org/doi: 10.1063/5.0058766.
  7. Neese,F.
     The SHARK Integral Generation and Digestion System
     J. Comp. Chem., 2022  1-16
     doi.org/10.1002/jcc.26942

List of suggested additional citations. These are papers that are important in the 'surrounding' of 
of this run, or papers that preceded the highly important papers. If you like your results we are grateful for a citation.

  1. Neese,F.
     Theoretical study of ligand superhyperfine structure. Application to Cu(II) complexes
     J. Phys. Chem. A, 2001 105(17)4290-4299
     doi.org/10.1021/jp003254f
  2. Izsak,R.; Neese,F.
     An overlap fitted chain of spheres exchange method
     J. Chem. Phys., 2011 135 144105
     doi.org/10.1063/1.3646921
  3. Izsak,R.; Hansen,A.; Neese,F.
     The resolution of identity and chain of spheres approximations for the LPNO-CCSD singles Fock term
     Molec. Phys., 2012 110 2413-2417
     doi.org/10.1080/00268976.2012.687466
  4. Neese,F.
     The ORCA program system
     WIRES Comput. Molec. Sci., 2012 2(1)73-78
     doi.org/10.1002/wcms.81
  5. Izsak,R.; Neese,F.; Klopper,W.
     Robust fitting techniques in the chain of spheres approximation to the Fock exchange: The role of the complementary space
     J. Chem. Phys., 2013 139 
     doi.org/10.1063/1.4819264
  6. Neese,F.
     Software update: the ORCA program system, version 4.0
     WIRES Comput. Molec. Sci., 2018 8(1)1-6
     doi.org/10.1002/wcms.1327
  7. Neese,F.; Wennmohs,F.; Becker,U.; Riplinger,C.
     The ORCA quantum chemistry program package
     J. Chem. Phys., 2020 152 Art. No. L224108
     doi.org/10.1063/5.0004608

List of optional additional citations

  1. Neese,F.
     Approximate second-order SCF convergence for spin unrestricted wavefunctions
     Chem. Phys. Lett., 2000 325(1-3)93-98
     doi.org/10.1016/s0009-2614(00)00662-x

Timings for individual modules:

Sum of individual times          ...     3272.147 sec (=  54.536 min)
Startup calculation              ...       12.804 sec (=   0.213 min)   0.4 %
SCF iterations                   ...      431.639 sec (=   7.194 min)  13.2 %
Property integrals               ...      277.273 sec (=   4.621 min)   8.5 %
SCF Response                     ...     2485.149 sec (=  41.419 min)  75.9 %
Property calculations            ...       65.282 sec (=   1.088 min)   2.0 %
                             ****ORCA TERMINATED NORMALLY****
TOTAL RUN TIME: 0 days 0 hours 54 minutes 33 seconds 245 msec
