
                                 *****************
                                 * O   R   C   A *
                                 *****************

                                            #,                                       
                                            ###                                      
                                            ####                                     
                                            #####                                    
                                            ######                                   
                                           ########,                                 
                                     ,,################,,,,,                         
                               ,,#################################,,                 
                          ,,##########################################,,             
                       ,#########################################, ''#####,          
                    ,#############################################,,   '####,        
                  ,##################################################,,,,####,       
                ,###########''''           ''''###############################       
              ,#####''   ,,,,##########,,,,          '''####'''          '####       
            ,##' ,,,,###########################,,,                        '##       
           ' ,,###''''                  '''############,,,                           
         ,,##''                                '''############,,,,        ,,,,,,###''
      ,#''                                            '''#######################'''  
     '                                                          ''''####''''         
             ,#######,   #######,   ,#######,      ##                                
            ,#'     '#,  ##    ##  ,#'     '#,    #''#        ,####,   ,####,        
            ##       ##  ##   ,#'  ##            #'  '#       #'       #'  '#        
            ##       ##  #######   ##           ,######,      #####,   #    #        
            '#,     ,#'  ##    ##  '#,     ,#' ,#      #,     #,   #   #,  ,#        
             '#######'   ##     ##  '#######'  #'      '#     '####' # '####'        



                #########################################################
                #                        -***-                          #
                #          Department of theory and spectroscopy        #
                #                                                       #
                #                      Frank Neese                      #
                #                                                       #
                #     Directorship, Architecture, Infrastructure        #
                #                    SHARK, DRIVERS                     #
                #        Core code/Algorithms in most modules           #
                #                                                       #
                #        Max Planck Institute fuer Kohlenforschung      #
                #                Kaiser Wilhelm Platz 1                 #
                #                 D-45470 Muelheim/Ruhr                 #
                #                      Germany                          #
                #                                                       #
                #                  All rights reserved                  #
                #                        -***-                          #
                #########################################################


                         Program Version 6.0.0  -   RELEASE  -


 With contributions from (in alphabetic order):
   Daniel Aravena         : Magnetic Suceptibility
   Michael Atanasov       : Ab Initio Ligand Field Theory (pilot matlab implementation)
   Alexander A. Auer      : GIAO ZORA, VPT2 properties, NMR spectrum
   Ute Becker             : All parallelization in ORCA, NUMFREQ, NUMCALC
   Giovanni Bistoni       : ED, misc. LED, open-shell LED, HFLD
   Martin Brehm           : Molecular dynamics
   Dmytro Bykov           : pre 5.0 version of the SCF Hessian
   Marcos Casanova-Páez   : Triplet and SCS-CIS(D). UHF-(DLPNO)-IP/EA/STEOM-CCSD. UHF-CVS-IP/STEOM-CCSD
   Vijay G. Chilkuri      : MRCI spin determinant printing, contributions to CSF-ICE
   Pauline Colinet        : FMM embedding
   Dipayan Datta          : RHF DLPNO-CCSD density
   Achintya Kumar Dutta   : EOM-CC, STEOM-CC
   Nicolas Foglia         : Exact transition moments, OPA infrastructure, MCD improvements
   Dmitry Ganyushin       : Spin-Orbit,Spin-Spin,Magnetic field MRCI
   Miquel Garcia          : C-PCM and meta-GGA Hessian, CCSD/C-PCM, Gaussian charge scheme
   Tiago L. C. Gouveia    : GS-ROHF, GS-ROCIS
   Yang Guo               : DLPNO-NEVPT2, F12-NEVPT2, CIM, IAO-localization
   Andreas Hansen         : Spin unrestricted coupled pair/coupled cluster methods
   Ingolf Harden          : AUTO-CI MPn and infrastructure 
   Benjamin Helmich-Paris : MC-RPA, TRAH-(SCF,CASSCF), AVAS, COSX integrals, SCF dyn. polar.
   Lee Huntington         : MR-EOM, pCC
   Robert Izsak           : Overlap fitted RIJCOSX, COSX-SCS-MP3, EOM
   Riya Kayal             : Wick's Theorem for AUTO-CI, AUTO-CI UHF-CCSDT
   Emily Kempfer          : AUTO-CI, RHF CISDT and CCSDT
   Christian Kollmar      : KDIIS, OOCD, Brueckner-CCSD(T), CCSD density, CASPT2, CASPT2-K, improved NEVPT2
   Axel Koslowski         : Symmetry handling
   Simone Kossmann        : Meta GGA functionals, TD-DFT gradient, OOMP2, (MP2 Hessian; deprecated post 5.0)
   Lucas Lang             : DCDCAS
   Marvin Lechner         : AUTO-CI (C++ implementation), FIC-MRCC
   Spencer Leger          : CASSCF response
   Dagmar Lenk            : GEPOL surface, SMD, ORCA-2-JSON
   Dimitrios Liakos       : Extrapolation schemes; Compound Job, initial MDCI parallelization
   Dimitrios Manganas     : Further ROCIS development; embedding schemes. LFT, Crystal Embedding
   Dimitrios Pantazis     : SARC Basis sets
   Anastasios Papadopoulos: AUTO-CI, single reference methods and gradients
   Taras Petrenko         : pre 6.0 DFT Hessian and TD-DFT gradient, (ASA, deprecated), ECA, 1-Electron XAS/XES, NRVS
   Peter Pinski           : DLPNO-MP2, DLPNO-MP2 Gradient
   Christoph Reimann      : Effective Core Potentials
   Marius Retegan         : Local ZFS, SOC
   Christoph Riplinger    : Optimizer, TS searches, QM/MM, DLPNO-CCSD(T), (RO)-DLPNO pert. Triples
   Michael Roemelt        : Original ROCIS implementation
   Masaaki Saitow         : Open-shell DLPNO-CCSD energy and density
   Barbara Sandhoefer     : DKH picture change effects
   Kantharuban Sivalingam : CASSCF convergence/infrastructure, NEVPT2 and variants, FIC-MRCI
   Bernardo de Souza      : ESD, SOC TD-DFT
   Georgi Stoychev        : AutoAux, RI-MP2 NMR, DLPNO-MP2 response, X2C
   Van Anh Tran           : RI-MP2 g-tensors
   Willem Van den Heuvel  : Paramagnetic NMR
   Zikuan Wang            : NOTCH, Electric field optimization 
   Frank Wennmohs         : Technical directorship and infrastructure
   Hang Xu                : AUTO-CI-Response properties 


 We gratefully acknowledge several colleagues who have allowed us to
 interface, adapt or use parts of their codes:
   Stefan Grimme, W. Hujo, H. Kruse, P. Pracht,  : VdW corrections, initial TS optimization,
                  C. Bannwarth, S. Ehlert,         DFT functionals, gCP, sTDA/sTD-DF
                  L. Wittmann, M. Mueller
   Ed Valeev, F. Pavosevic, A. Kumar             : LibInt (2-el integral package), F12 methods
   Garnet Chan, S. Sharma, J. Yang, R. Olivares  : DMRG
   Ulf Ekstrom                                   : XCFun DFT Library
   Mihaly Kallay                                 : mrcc  (arbitrary order and MRCC methods)
   Frank Weinhold                                : gennbo (NPA and NBO analysis)
   Simon Mueller                                 : openCOSMO-RS
   Christopher J. Cramer and Donald G. Truhlar   : smd solvation model
   Lars Goerigk                                  : TD-DFT with DH, B97 family of functionals
   V. Asgeirsson, H. Jonsson                     : NEB implementation
   FAccTs GmbH                                   : IRC, NEB, NEB-TS, DLPNO-Multilevel, CI-OPT
                                                   MM, QMMM, 2- and 3-layer-ONIOM, Crystal-QMMM,
                                                   LR-CPCM, SF, NACMEs, symmetry and pop. for TD-DFT,
                                                   nearIR, NL-DFT gradient (VV10), updates on ESD,
                                                   ML-optimized integration grids, MBIS, APM,
                                                   GOAT, DOCKER, SOLVATOR, interface openCOSMO-RS
   S Lehtola, MJT Oliveira, MAL Marques          : LibXC Library
   Liviu Ungur et al                             : ANISO software


 Your calculation uses the libint2 library for the computation of 2-el integrals
 For citations please refer to: http://libint.valeyev.net

 Your ORCA version has been built with support for libXC version: 6.2.2
 For citations please refer to: https://libxc.gitlab.io

 This ORCA versions uses:
   CBLAS   interface :  Fast vector & matrix operations
   LAPACKE interface :  Fast linear algebra routines
   SCALAPACK package :  Parallel linear algebra routines
   Shared memory     :  Shared parallel matrices
   BLAS/LAPACK       :  OpenBLAS 0.3.27  USE64BITINT DYNAMIC_ARCH NO_AFFINITY Haswell SINGLE_THREADED
        Core in use  :  Haswell
   Copyright (c) 2011-2014, The OpenBLAS Project


NOTE: MaxCore=4096 MB was set to SCF,MP2,MDCI,CIPSI,MRCI and CIS
      => If you want to overwrite this, your respective input block should be placed after the MaxCore statement
Warning: RI is on but no J-basis has been assigned. Assigning Def2/J (nothing to worry about!)
================================================================================

----- Orbital basis set information -----
Your calculation utilizes the basis: EPR-II
   V. Barone, in Recent Advances in Density Functional Methods, Part 1 (ed. D. P. Chong), World Scientific, Singapore, 1995, p. 287.

The basis set includes element-specific modifications.

Your calculation utilizes the basis: CP(PPP) 

----- AuxJ basis set information -----
Your calculation utilizes the auxiliary basis: def2/J
   F. Weigend, Phys. Chem. Chem. Phys. 8, 1057 (2006).

================================================================================
                                        WARNINGS
                       Please study these warnings very carefully!
================================================================================


================================================================================
                                       INPUT FILE
================================================================================
NAME = system.inp
|  1> ! UKS B3LYP SmallPrint TightSCF
|  2> %basis basis "EPR-II"
|  3>  newGTO Cu "CP(PPP)" end
|  4> end
|  5> %maxcore 4096
|  6> 
|  7> %pal nprocs 16 end
|  8> 
|  9> %method
| 10> SpecialGridAtoms 29,7
| 11> SpecialGridIntAcc 9,8
| 12> end
| 13> * xyz 2 2
| 14>   Cu    4.897058    1.88495535152763    4.32842239204393
| 15>   O           4.84213607789121      4.53806342218556     10.24127619151112
| 16>   N           6.56300096253853      1.12202549627517      3.40086900087725
| 17>   N           4.69978198146741     -0.66233834056647      4.60019336217965
| 18>   N           3.93188498476158      1.34173410606556      2.61745669607396
| 19>   N           5.49326799387934      3.72313035197271      2.60670655845883
| 20>   N           5.82749123565551      2.44823515695863      6.08437446981435
| 21>   N           3.28463085003871      2.70909097897208      5.30516028634294
| 22>   N           2.05979841930651      4.87249994499092      9.41900636515100
| 23>   N           1.23700942330103      6.51122954120675     12.50845162727244
| 24>   C           6.99925953518788     -0.09295054415919      3.77518835707240
| 25>   C           6.14955491679421     -0.89675412764945      4.73925976528630
| 26>   H           6.41733829346214     -1.95124225393547      4.60373821767795
| 27>   H           6.44163688667453     -0.63374865933669      5.75603291870627
| 28>   C           3.88691019032641     -1.32208518629595      5.71345087784197
| 29>   C           2.41027282409219     -0.94434103358818      5.53297464656023
| 30>   H           2.27502831736646      0.13615278141239      5.55704935127571
| 31>   H           1.82863334176629     -1.37315987475020      6.34894812803215
| 32>   H           1.97922210918910     -1.32650715100505      4.60751241264017
| 33>   C           4.34254015460839     -0.79042011424287      7.07949868848296
| 34>   H           5.33276656490859     -1.14355761890479      7.36705844240593
| 35>   H           3.65293242289065     -1.14607798318432      7.84503654336743
| 36>   H           4.33560689823215      0.29833793344549      7.10660861284140
| 37>   C           4.03153880719811     -2.85578081562920      5.70873222970587
| 38>   H           3.69842837996247     -3.31061341186739      4.77455603015775
| 39>   H           3.41752835712962     -3.28011599378606      6.50380891139391
| 40>   H           5.05791411829174     -3.17408723296780      5.89531467372732
| 41>   C           4.22225815690445     -1.03432068558319      3.25525797606993
| 42>   H           3.52287654556875     -1.86721123983838      3.29820389534531
| 43>   H           5.06228112822107     -1.40778652933676      2.65958497707644
| 44>   C           3.59287566219348      0.06192661512138      2.40819216627872
| 45>   C           3.63462836737765      2.29468718951443      1.71708062949707
| 46>   C           2.86152291976791      1.99711996677758      0.60254459532072
| 47>   H           2.63141688603068      2.76968514038769     -0.11903438495120
| 48>   C           2.40265042649333      0.69778673670803      0.42704354153560
| 49>   H           1.78013646636232      0.44755782905959     -0.42243190948749
| 50>   C           2.79018532109518     -0.28462741074109      1.32537419801447
| 51>   H           2.49763378504215     -1.31607194470082      1.17806416406092
| 52>   C           4.17676040859319      3.69214726963316      1.94229402611091
| 53>   H           4.18709677938451      4.19559434679160      0.96848710870425
| 54>   H           3.46800830186349      4.23738137972572      2.56555220851522
| 55>   C           5.92324202061449      5.13365754406697      3.00295268173945
| 56>   C           6.10043778138540      6.05582083237321      1.78169624056824
| 57>   H           6.86513629259563      5.70222247942964      1.08820466112784
| 58>   H           6.41297636428656      7.04526140592503      2.11736397259424
| 59>   H           5.17150210908210      6.18805901432114      1.22551922202899
| 60>   C           4.87600536546194      5.75395622159336      3.93849160693876
| 61>   H           3.94926891656174      6.01415114146164      3.42693126976888
| 62>   H           5.27405956153802      6.68108737383112      4.35099958847018
| 63>   H           4.64405567054789      5.09133355222465      4.77093440775405
| 64>   C           7.24760691089447      5.04497054583017      3.77400989214901
| 65>   H           8.06860756665487      4.65288835053409      3.17354571550919
| 66>   H           7.14254365822928      4.42562283454035      4.66367390192316
| 67>   H           7.54334103246437      6.04374689627366      4.09494622019352
| 68>   C           6.51570558993843      3.02129101274837      1.81039333536717
| 69>   H           6.06015654307577      2.63102568981149      0.89379692522451
| 70>   H           7.28995937169812      3.70310940454566      1.46291289308256
| 71>   C           7.20061704288712      1.82407982038967      2.45295437562095
| 72>   C           8.41674565460022      1.37648929309808      1.94550917956482
| 73>   H           8.93964952937779      1.96249685951003      1.20095802475404
| 74>   C           8.92723980565239      0.16256295077515      2.37949188834787
| 75>   H           9.87077242628372     -0.20311263735631      1.99497021889807
| 76>   C           8.19162541146207     -0.60114690811902      3.27666684961838
| 77>   H           8.53193152683451     -1.58228592023121      3.58033490001722
| 78>   C           7.10147871715225      2.30236607786963      6.44417816592596
| 79>   H           7.76077204477974      1.83755293840851      5.72323416473185
| 80>   C           7.58689314845372      2.73050198647012      7.67724445890591
| 81>   H           8.63073776975700      2.58780118250151      7.92029742126913
| 82>   C           6.71516410487527      3.33561350641016      8.56394865155919
| 83>   H           7.03645771436750      3.68947428890903      9.53510035257019
| 84>   C           5.37571573075002      3.50289610649517      8.20431153273621
| 85>   C           4.96927623642340      3.04121443658028      6.94911173286247
| 86>   C           3.59912916285866      3.18541124301054      6.53266651684998
| 87>   C           2.03644000760019      2.81522106682635      4.86554854296179
| 88>   C           1.34537030894409      3.90109081420557      6.88732672151878
| 89>   C           2.66124151258898      3.80172451920830      7.39034796658216
| 90>   C           3.03954927079290      4.29614339271767      8.69913762461692
| 91>   C           2.21363438336226      5.36825047310040     10.62542102711441
| 92>   H           3.16965515523778      5.32293111706647     11.12749765703611
| 93>   C           1.11665428355794      5.96744430588254     11.29524244439685
| 94>   C          -0.00296431634628      7.00565608284061     12.98225428135816
| 95>   C          -0.28170669864420      7.61176183497847     14.19821713044763
| 96>   H           0.47293978725503      7.76798327673516     14.95646219403606
| 97>   C          -1.59728274468574      8.01251525768647     14.41490596836763
| 98>   H          -1.85861319007878      8.48848264009923     15.35058480604336
| 99>   C          -2.57893369852909      7.80800360465777     13.44685725259049
|100>   H          -3.59350012212690      8.12974484119720     13.64115676115099
|101>   C          -2.27168869116683      7.19217438145066     12.23285600755127
|102>   H          -3.04593832421797      7.03817588395684     11.49174630962419
|103>   C          -0.96874833445319      6.78715377919201     12.00550996413086
|104>   C          -0.32769659758995      6.10003668392090     10.81795423306720
|105>   C          -0.96486235677455      4.71552278679988     10.56896771729443
|106>   H          -0.45985905643897      4.20366950949728      9.75242753493425
|107>   H          -2.01684889471860      4.84430713733358     10.31178169183051
|108>   H          -0.91147454518540      4.08802239529775     11.45952057360119
|109>   C          -0.41313961508513      6.98605306553943      9.55425252360953
|110>   H           0.02778496857196      7.96816811556402      9.72922159884393
|111>   H          -1.46034932023125      7.13079338032414      9.28614878130626
|112>   H           0.10565522941097      6.51460358937405      8.72211026766217
|113>   C           2.45135159768668      6.60235899503687     13.31531897597379
|114>   H           2.46752124599366      5.80431009235021     14.05927384877848
|115>   H           2.46148721348354      7.56438757238100     13.82334046830718
|116>   H           3.33244818175528      6.53083947549351     12.68738268766822
|117>   C           4.42118146239581      4.15499182366042      9.14747304773183
|118>   H           0.59002338594694      4.36549795687222      7.50305546181485
|119>   H           1.81786445650445      2.41073085267963      3.88725207284301
|120>   C           1.03756835758540      3.41270770193857      5.63885904421318
|121>   H           0.03197830644313      3.48176168323968      5.24662289332729
|122> *
|123> 
|124> %eprnmr
|125>    GTensor 1
|126>    nuclei = all Cu { aiso, adip, aorb, fgrad }
|127>    nuclei = all N { aiso, adip, aorb, fgrad }
|128> end
|129> 
|130> 
|131>                          ****END OF INPUT****
================================================================================

                       ****************************
                       * Single Point Calculation *
                       ****************************

---------------------------------
CARTESIAN COORDINATES (ANGSTROEM)
---------------------------------
  Cu     4.897058    1.884955    4.328422
  O      4.842136    4.538063   10.241276
  N      6.563001    1.122025    3.400869
  N      4.699782   -0.662338    4.600193
  N      3.931885    1.341734    2.617457
  N      5.493268    3.723130    2.606707
  N      5.827491    2.448235    6.084374
  N      3.284631    2.709091    5.305160
  N      2.059798    4.872500    9.419006
  N      1.237009    6.511230   12.508452
  C      6.999260   -0.092951    3.775188
  C      6.149555   -0.896754    4.739260
  H      6.417338   -1.951242    4.603738
  H      6.441637   -0.633749    5.756033
  C      3.886910   -1.322085    5.713451
  C      2.410273   -0.944341    5.532975
  H      2.275028    0.136153    5.557049
  H      1.828633   -1.373160    6.348948
  H      1.979222   -1.326507    4.607512
  C      4.342540   -0.790420    7.079499
  H      5.332767   -1.143558    7.367058
  H      3.652932   -1.146078    7.845037
  H      4.335607    0.298338    7.106609
  C      4.031539   -2.855781    5.708732
  H      3.698428   -3.310613    4.774556
  H      3.417528   -3.280116    6.503809
  H      5.057914   -3.174087    5.895315
  C      4.222258   -1.034321    3.255258
  H      3.522877   -1.867211    3.298204
  H      5.062281   -1.407787    2.659585
  C      3.592876    0.061927    2.408192
  C      3.634628    2.294687    1.717081
  C      2.861523    1.997120    0.602545
  H      2.631417    2.769685   -0.119034
  C      2.402650    0.697787    0.427044
  H      1.780136    0.447558   -0.422432
  C      2.790185   -0.284627    1.325374
  H      2.497634   -1.316072    1.178064
  C      4.176760    3.692147    1.942294
  H      4.187097    4.195594    0.968487
  H      3.468008    4.237381    2.565552
  C      5.923242    5.133658    3.002953
  C      6.100438    6.055821    1.781696
  H      6.865136    5.702222    1.088205
  H      6.412976    7.045261    2.117364
  H      5.171502    6.188059    1.225519
  C      4.876005    5.753956    3.938492
  H      3.949269    6.014151    3.426931
  H      5.274060    6.681087    4.351000
  H      4.644056    5.091334    4.770934
  C      7.247607    5.044971    3.774010
  H      8.068608    4.652888    3.173546
  H      7.142544    4.425623    4.663674
  H      7.543341    6.043747    4.094946
  C      6.515706    3.021291    1.810393
  H      6.060157    2.631026    0.893797
  H      7.289959    3.703109    1.462913
  C      7.200617    1.824080    2.452954
  C      8.416746    1.376489    1.945509
  H      8.939650    1.962497    1.200958
  C      8.927240    0.162563    2.379492
  H      9.870772   -0.203113    1.994970
  C      8.191625   -0.601147    3.276667
  H      8.531932   -1.582286    3.580335
  C      7.101479    2.302366    6.444178
  H      7.760772    1.837553    5.723234
  C      7.586893    2.730502    7.677244
  H      8.630738    2.587801    7.920297
  C      6.715164    3.335614    8.563949
  H      7.036458    3.689474    9.535100
  C      5.375716    3.502896    8.204312
  C      4.969276    3.041214    6.949112
  C      3.599129    3.185411    6.532667
  C      2.036440    2.815221    4.865549
  C      1.345370    3.901091    6.887327
  C      2.661242    3.801725    7.390348
  C      3.039549    4.296143    8.699138
  C      2.213634    5.368250   10.625421
  H      3.169655    5.322931   11.127498
  C      1.116654    5.967444   11.295242
  C     -0.002964    7.005656   12.982254
  C     -0.281707    7.611762   14.198217
  H      0.472940    7.767983   14.956462
  C     -1.597283    8.012515   14.414906
  H     -1.858613    8.488483   15.350585
  C     -2.578934    7.808004   13.446857
  H     -3.593500    8.129745   13.641157
  C     -2.271689    7.192174   12.232856
  H     -3.045938    7.038176   11.491746
  C     -0.968748    6.787154   12.005510
  C     -0.327697    6.100037   10.817954
  C     -0.964862    4.715523   10.568968
  H     -0.459859    4.203670    9.752428
  H     -2.016849    4.844307   10.311782
  H     -0.911475    4.088022   11.459521
  C     -0.413140    6.986053    9.554253
  H      0.027785    7.968168    9.729222
  H     -1.460349    7.130793    9.286149
  H      0.105655    6.514604    8.722110
  C      2.451352    6.602359   13.315319
  H      2.467521    5.804310   14.059274
  H      2.461487    7.564388   13.823340
  H      3.332448    6.530839   12.687383
  C      4.421181    4.154992    9.147473
  H      0.590023    4.365498    7.503055
  H      1.817864    2.410731    3.887252
  C      1.037568    3.412708    5.638859
  H      0.031978    3.481762    5.246623

----------------------------
CARTESIAN COORDINATES (A.U.)
----------------------------
  NO LB      ZA    FRAG     MASS         X           Y           Z
   0 Cu   29.0000    0    63.550    9.254098    3.562049    8.179533
   1 O     8.0000    0    15.999    9.150311    8.575697   19.353207
   2 N     7.0000    0    14.007   12.402274    2.120321    6.426711
   3 N     7.0000    0    14.007    8.881301   -1.251638    8.693106
   4 N     7.0000    0    14.007    7.430186    2.535510    4.946276
   5 N     7.0000    0    14.007   10.380772    7.035697    4.925962
   6 N     7.0000    0    14.007   11.012362    4.626494   11.497801
   7 N     7.0000    0    14.007    6.207053    5.119440   10.025300
   8 N     7.0000    0    14.007    3.892455    9.207690   17.799342
   9 N     7.0000    0    14.007    2.337609   12.304441   23.637548
  10 C     6.0000    0    12.011   13.226684   -0.175651    7.134072
  11 C     6.0000    0    12.011   11.620975   -1.694620    8.955903
  12 H     1.0000    0     1.008   12.127012   -3.687313    8.699804
  13 H     1.0000    0     1.008   12.172930   -1.197611   10.877326
  14 C     6.0000    0    12.011    7.345196   -2.498379   10.796857
  15 C     6.0000    0    12.011    4.554756   -1.784546   10.455807
  16 H     1.0000    0     1.008    4.299180    0.257291   10.501301
  17 H     1.0000    0     1.008    3.455616   -2.594896   11.997773
  18 H     1.0000    0     1.008    3.740188   -2.506735    8.706937
  19 C     6.0000    0    12.011    8.206212   -1.493678   13.378314
  20 H     1.0000    0     1.008   10.077468   -2.161011   13.921723
  21 H     1.0000    0     1.008    6.903042   -2.165774   14.824971
  22 H     1.0000    0     1.008    8.193110    0.563777   13.429544
  23 C     6.0000    0    12.011    7.618504   -5.396644   10.787940
  24 H     1.0000    0     1.008    6.989017   -6.256153    9.022603
  25 H     1.0000    0     1.008    6.458193   -6.198521   12.290418
  26 H     1.0000    0     1.008    9.558072   -5.998156   11.140530
  27 C     6.0000    0    12.011    7.978912   -1.954583    6.151546
  28 H     1.0000    0     1.008    6.657272   -3.528518    6.232702
  29 H     1.0000    0     1.008    9.566325   -2.660331    5.025887
  30 C     6.0000    0    12.011    6.789551    0.117024    4.550824
  31 C     6.0000    0    12.011    6.868452    4.336330    3.244812
  32 C     6.0000    0    12.011    5.407495    3.774010    1.138644
  33 H     1.0000    0     1.008    4.972657    5.233946   -0.224942
  34 C     6.0000    0    12.011    4.540351    1.318626    0.806995
  35 H     1.0000    0     1.008    3.363970    0.845762   -0.798281
  36 C     6.0000    0    12.011    5.272686   -0.537868    2.504594
  37 H     1.0000    0     1.008    4.719844   -2.487016    2.226219
  38 C     6.0000    0    12.011    7.892933    6.977147    3.670404
  39 H     1.0000    0     1.008    7.912466    7.928524    1.830175
  40 H     1.0000    0     1.008    6.553586    8.007490    4.848191
  41 C     6.0000    0    12.011   11.193305    9.701207    5.674758
  42 C     6.0000    0    12.011   11.528157   11.443843    3.366918
  43 H     1.0000    0     1.008   12.973227   10.775639    2.056409
  44 H     1.0000    0     1.008   12.118769   13.313615    4.001238
  45 H     1.0000    0     1.008    9.772723   11.693737    2.315896
  46 C     6.0000    0    12.011    9.214315   10.873401    7.442671
  47 H     1.0000    0     1.008    7.463037   11.365099    6.475962
  48 H     1.0000    0     1.008    9.966528   12.625425    8.222198
  49 H     1.0000    0     1.008    8.775993    9.621226    9.015759
  50 C     6.0000    0    12.011   13.695992    9.533613    7.131845
  51 H     1.0000    0     1.008   15.247459    8.792685    5.997132
  52 H     1.0000    0     1.008   13.497451    8.363215    8.813066
  53 H     1.0000    0     1.008   14.254849   11.421026    7.738327
  54 C     6.0000    0    12.011   12.312899    5.709413    3.421148
  55 H     1.0000    0     1.008   11.452036    4.971918    1.689031
  56 H     1.0000    0     1.008   13.776027    6.997863    2.764505
  57 C     6.0000    0    12.011   13.607194    3.447011    4.635412
  58 C     6.0000    0    12.011   15.905344    2.601188    3.676480
  59 H     1.0000    0     1.008   16.893489    3.708582    2.269482
  60 C     6.0000    0    12.011   16.870038    0.307199    4.496588
  61 H     1.0000    0     1.008   18.653057   -0.383827    3.769947
  62 C     6.0000    0    12.011   15.479929   -1.136003    6.192003
  63 H     1.0000    0     1.008   16.123014   -2.990087    6.765852
  64 C     6.0000    0    12.011   13.419850    4.350841   12.177732
  65 H     1.0000    0     1.008   14.665734    3.472472   10.815345
  66 C     6.0000    0    12.011   14.337150    5.159901   14.507889
  67 H     1.0000    0     1.008   16.309731    4.890236   14.967193
  68 C     6.0000    0    12.011   12.689821    6.303396   16.183518
  69 H     1.0000    0     1.008   13.296978    6.972096   18.018728
  70 C     6.0000    0    12.011   10.158631    6.619514   15.503902
  71 C     6.0000    0    12.011    9.390571    5.747062   13.131918
  72 C     6.0000    0    12.011    6.801368    6.019555   12.344951
  73 C     6.0000    0    12.011    3.848314    5.319997    9.194554
  74 C     6.0000    0    12.011    2.542381    7.371993   13.015161
  75 C     6.0000    0    12.011    5.029018    7.184218   13.965734
  76 C     6.0000    0    12.011    5.743916    8.118534   16.438988
  77 C     6.0000    0    12.011    4.183163   10.144523   20.079136
  78 H     1.0000    0     1.008    5.989780   10.058882   21.027923
  79 C     6.0000    0    12.011    2.110171   11.276835   21.344915
  80 C     6.0000    0    12.011   -0.005602   13.238771   24.532905
  81 C     6.0000    0    12.011   -0.532349   14.384145   26.830742
  82 H     1.0000    0     1.008    0.893727   14.679361   28.263617
  83 C     6.0000    0    12.011   -3.018427   15.141459   27.240225
  84 H     1.0000    0     1.008   -3.512270   16.040907   29.008401
  85 C     6.0000    0    12.011   -4.873478   14.754988   25.410878
  86 H     1.0000    0     1.008   -6.790731   15.362991   25.778050
  87 C     6.0000    0    12.011   -4.292869   13.591240   23.116748
  88 H     1.0000    0     1.008   -5.755989   13.300225   21.716253
  89 C     6.0000    0    12.011   -1.830669   12.825862   22.687126
  90 C     6.0000    0    12.011   -0.619257   11.527399   20.442971
  91 C     6.0000    0    12.011   -1.823326    8.911047   19.972455
  92 H     1.0000    0     1.008   -0.869008    7.943784   18.429417
  93 H     1.0000    0     1.008   -3.811292    9.154414   19.486443
  94 H     1.0000    0     1.008   -1.722437    7.725243   21.655356
  95 C     6.0000    0    12.011   -0.780721   13.201727   18.054921
  96 H     1.0000    0     1.008    0.052506   15.057656   18.385564
  97 H     1.0000    0     1.008   -2.759660   13.475247   17.548278
  98 H     1.0000    0     1.008    0.199659   12.310817   16.482400
  99 C     6.0000    0    12.011    4.632383   12.476650   25.162306
 100 H     1.0000    0     1.008    4.662939   10.968556   26.568177
 101 H     1.0000    0     1.008    4.651537   14.294621   26.122328
 102 H     1.0000    0     1.008    6.297414   12.341498   23.975679
 103 C     6.0000    0    12.011    8.354822    7.851797   17.286219
 104 H     1.0000    0     1.008    1.114983    8.249596   14.178720
 105 H     1.0000    0     1.008    3.435266    4.555621    7.345842
 106 C     6.0000    0    12.011    1.960720    6.449083   10.655899
 107 H     1.0000    0     1.008    0.060430    6.579576    9.914680

--------------------------------
INTERNAL COORDINATES (ANGSTROEM)
--------------------------------
 Cu     0   0   0     0.000000000000     0.00000000     0.00000000
 O      1   0   0     6.481036869668     0.00000000     0.00000000
 N      1   2   0     2.053724229767   124.81977789     0.00000000
 N      1   2   3     2.569335019315   107.98094065    83.97384787
 N      1   2   4     2.038149131848   150.57141822    97.01342408
 N      1   2   4     2.588176790847   108.54910701   189.10675497
 N      1   2   4     2.065516362715    27.94264494   277.43568199
 N      1   2   7     2.057459054396    52.86266091   180.17048229
 N      2   1   3     2.920509938608    78.35097220   177.84937435
 N      9   2   1     3.592643657407    91.62188740   180.74239357
 C      3   1   2     1.344099438830   118.24920027    77.90378261
 C      4   1   2     1.475171783120    95.28194411   272.48379762
 H     12   4   1     1.096366378162   112.40962521   195.60379879
 H     12   4   1     1.090096967708   108.23523174    78.41555482
 C      4   1   2     1.528191331431   123.08686759    33.96951686
 C     15   4   1     1.534835569799   108.65306697    63.26056400
 H     16  15   4     1.089191237690   111.16228618   301.49371555
 H     16  15   4     1.089955415786   109.18046003   182.56296923
 H     16  15   4     1.090108254501   113.20185384    63.92482244
 C     15   4   1     1.535041704368   109.92999946   305.56497085
 H     20  15   4     1.089928921045   113.09376198   289.23459129
 H     20  15   4     1.089999793874   108.91764398   171.05397212
 H     20  15   4     1.089117580635   111.49990187    52.29293796
 C     15   4   1     1.540507054802   112.18749973   184.55981130
 H     24  15   4     1.091109719110   112.89044479   300.13365010
 H     24  15   4     1.090511855038   109.40848548   181.27478913
 H     24  15   4     1.090677891478   112.23318982    62.72110063
 C      4   1   2     1.474873235515   100.27966950   159.63068257
 H     28   4   1     1.088432664718   111.41133597   215.36440159
 H     28   4   1     1.095418481915   109.48622780   100.06326537
 C      5   1   2     1.340382847583   120.35215765   257.60020624
 C      5   1   2     1.344305819781   118.55681487    76.96173722
 C     32   5   1     1.388678816951   120.58080303   186.51246328
 H     33  32   5     1.081888145331   120.04555933   180.28828820
 C     33  32   5     1.389111740547   119.06066068   359.75090001
 H     35  33  32     1.082472484025   120.35400708   178.63068112
 C     35  33  32     1.386477125672   119.24746349   356.33519449
 H     37  35  33     1.082203527062   120.76905108   183.80511602
 C      6   1   2     1.474990232730    94.53826910   245.83879231
 H     39   6   1     1.096296361596   112.46142478   195.20500278
 H     39   6   1     1.089981901472   108.19771693    77.83193349
 C      6   1   2     1.526917029023   123.25191188     6.97248675
 C     42   6   1     1.540535868793   112.31117153   184.90750595
 H     43  42   6     1.091204004303   112.98232975   299.17275034
 H     43  42   6     1.090571336830   109.39341458   180.36736671
 H     43  42   6     1.090752628231   112.26166940    61.84695291
 C     42   6   1     1.535157367112   109.83497021   305.93086693
 H     47  42   6     1.090062301252   112.98029352   288.38610136
 H     47  42   6     1.090037683427   108.97680825   170.14229394
 H     47  42   6     1.088958437940   111.42548108    51.28695870
 C     42   6   1     1.535036471224   108.65869470    63.63488783
 H     51  42   6     1.090104468413   113.19560662    63.45890152
 H     51  42   6     1.089096839050   111.09720742   301.03096070
 H     51  42   6     1.089960088960   109.21107924   182.17458514
 C      6   1   2     1.473795048570   100.42946398   133.02481835
 H     55   6   1     1.095436413249   109.46675401    99.15096306
 H     55   6   1     1.088617423952   111.56865498   214.42351562
 C      3   1   2     1.340886526408   120.69797869   258.29991305
 C     58   3   1     1.391692030353   120.32509051   172.14047257
 H     59  58   3     1.082215206084   119.92933263   181.74111865
 C     59  58   3     1.386564976612   119.28633755     3.34864349
 H     61  59  58     1.082510672570   120.36252829   179.88943157
 C     11   3   1     1.388712936729   120.63065393   186.29467476
 H     63  11   3     1.081968714003   120.07592413   180.29854167
 C      7   1   2     1.331833544772   129.10139653   179.78916825
 H     65   7   1     1.081886869930   116.74070258     0.93024881
 C     65   7   1     1.392616246219   122.61268668   180.34470013
 H     67  65   7     1.081226088934   119.66819466   179.98140800
 C     67  65   7     1.382865070154   118.85174648   359.77646187
 H     69  67  65     1.082396721756   122.08945297   180.10087908
 C     69  67  65     1.396941041159   119.45620194     0.00000000
 C      7   1   2     1.354964185900   112.12208815   359.86718139
 C      8   1   2     1.353721436867   112.91340892     0.16264459
 C      8   1   2     1.327592731079   127.70876486   179.90240911
 C     73   8   1     2.391110637549    91.19377618   179.62056986
 C     75  73   8     1.412239731118    32.17050446   179.87055702
 C      9   2   1     1.345477465413    53.69055716     0.37750212
 C      9   2   1     1.313343224964    70.91363444   179.83729666
 H     78   9   2     1.080791609239   120.96444928   358.47641387
 C     10   9   2     1.334939797606    18.79486078   181.66360080
 C     10   9   2     1.416503242180   130.34057765   182.01114626
 C     81  10   9     1.386948863091   128.44156408   178.64147984
 H     82  81  10     1.081125355359   122.53037441   359.44977549
 C     82  81  10     1.392227600362   116.88214122   179.84427093
 H     84  82  81     1.081819503468   119.30954536   179.93158019
 C     84  82  81     1.393765377502   121.01076920     0.00000000
 H     86  84  82     1.081949513706   119.47783195   180.03059955
 C     86  84  82     1.395508563091   120.92422644     0.15780342
 H     88  86  84     1.082784196353   120.05006797   179.85053664
 C     88  86  84     1.383250333405   118.65772021   359.94778850
 C     90  88  86     1.514386293629   131.33567589   179.75267693
 C     91  90  88     1.544296998972   111.01182881   298.68582812
 H     92  91  90     1.088007343837   110.56496016   183.36977105
 H     92  91  90     1.090598797291   109.27717774    63.34203236
 H     92  91  90     1.090729750964   111.34258402   304.22284255
 C     91  90  88     1.545725573387   110.95462151    62.68758716
 H     96  91  90     1.090678063063   111.26302158    55.50077617
 H     96  91  90     1.090631716902   109.27606585   296.40059388
 H     96  91  90     1.088059480628   110.51989509   176.32446085
 C     10   9   2     1.460810190356   108.24338586     1.09901401
 H    100  10   9     1.091151850741   110.07706784   260.85048069
 H    100  10   9     1.087974058058   108.71238541   141.32883816
 H    100  10   9     1.084320162269   110.57919979    22.02929844
 C      2   1   3     1.233025529032    20.99594741   177.96131442
 H     75  73   8     1.079511394043   150.79532850   180.03472050
 H     74   8   1     1.080949392120   117.37983145     1.18135728
 C     75  73   8     1.375475062255    88.28210867     0.03535531
 H    107  75  73     1.081586335598   120.96731189   179.91839360

---------------------------
INTERNAL COORDINATES (A.U.)
---------------------------
 Cu     0   0   0     0.000000000000     0.00000000     0.00000000
 O      1   0   0    12.247384747518     0.00000000     0.00000000
 N      1   2   0     3.880976348858   124.81977789     0.00000000
 N      1   2   3     4.855339532799   107.98094065    83.97384787
 N      1   2   4     3.851543679282   150.57141822    97.01342408
 N      1   2   4     4.890945320873   108.54910701   189.10675497
 N      1   2   4     3.903260250665    27.94264494   277.43568199
 N      1   2   7     3.888034144565    52.86266091   180.17048229
 N      2   1   3     5.518963955364    78.35097220   177.84937435
 N      9   2   1     6.789112609268    91.62188740   180.74239357
 C      3   1   2     2.539979836145   118.24920027    77.90378261
 C      4   1   2     2.787670670585    95.28194411   272.48379762
 H     12   4   1     2.071832197165   112.40962521   195.60379879
 H     12   4   1     2.059984728387   108.23523174    78.41555482
 C      4   1   2     2.887863096637   123.08686759    33.96951686
 C     15   4   1     2.900418887522   108.65306697    63.26056400
 H     16  15   4     2.058273146701   111.16228618   301.49371555
 H     16  15   4     2.059717234020   109.18046003   182.56296923
 H     16  15   4     2.060006057335   113.20185384    63.92482244
 C     15   4   1     2.900808425404   109.92999946   305.56497085
 H     20  15   4     2.059667166216   113.09376198   289.23459129
 H     20  15   4     2.059801096453   108.91764398   171.05397212
 H     20  15   4     2.058133955040   111.49990187    52.29293796
 C     15   4   1     2.911136440949   112.18749973   184.55981130
 H     24  15   4     2.061898551177   112.89044479   300.13365010
 H     24  15   4     2.060768751817   109.40848548   181.27478913
 H     24  15   4     2.061082515216   112.23318982    62.72110063
 C      4   1   2     2.787106497374   100.27966950   159.63068257
 H     28   4   1     2.056839651531   111.41133597   215.36440159
 H     28   4   1     2.070040932854   109.48622780   100.06326537
 C      5   1   2     2.532956496538   120.35215765   257.60020624
 C      5   1   2     2.540369839623   118.55681487    76.96173722
 C     32   5   1     2.624222652015   120.58080303   186.51246328
 H     33  32   5     2.044472302212   120.04555933   180.28828820
 C     33  32   5     2.625040759049   119.06066068   359.75090001
 H     35  33  32     2.045576542313   120.35400708   178.63068112
 C     35  33  32     2.620062058467   119.24746349   356.33519449
 H     37  35  33     2.045068287311   120.76905108   183.80511602
 C      6   1   2     2.787327590068    94.53826910   245.83879231
 H     39   6   1     2.071699885032   112.46142478   195.20500278
 H     39   6   1     2.059767284712   108.19771693    77.83193349
 C      6   1   2     2.885455014073   123.25191188     6.97248675
 C     42   6   1     2.911190891501   112.31117153   184.90750595
 H     43  42   6     2.062076724370   112.98232975   299.17275034
 H     43  42   6     2.060881156114   109.39341458   180.36736671
 H     43  42   6     2.061223747212   112.26166940    61.84695291
 C     42   6   1     2.901026996314   109.83497021   305.93086693
 H     47  42   6     2.059919218278   112.98029352   288.38610136
 H     47  42   6     2.059872697331   108.97680825   170.14229394
 H     47  42   6     2.057833218930   111.42548108    51.28695870
 C     42   6   1     2.900798536194   108.65869470    63.63488783
 H     51  42   6     2.059998902665   113.19560662    63.45890152
 H     51  42   6     2.058094759123   111.09720742   301.03096070
 H     51  42   6     2.059726065038   109.21107924   182.17458514
 C      6   1   2     2.785069019326   100.42946398   133.02481835
 H     55   6   1     2.070074818165   109.46675401    99.15096306
 H     55   6   1     2.057188795885   111.56865498   214.42351562
 C      3   1   2     2.533908311576   120.69797869   258.29991305
 C     58   3   1     2.629916800129   120.32509051   172.14047257
 H     59  58   3     2.045090357464   119.92933263   181.74111865
 C     59  58   3     2.620228072683   119.28633755     3.34864349
 H     61  59  58     2.045648708204   120.36252829   179.88943157
 C     11   3   1     2.624287129052   120.63065393   186.29467476
 H     63  11   3     2.044624554937   120.07592413   180.29854167
 C      7   1   2     2.516800655589   129.10139653   179.78916825
 H     65   7   1     2.044469892054   116.74070258     0.93024881
 C     65   7   1     2.631663315003   122.61268668   180.34470013
 H     67  65   7     2.043221196935   119.66819466   179.98140800
 C     67  65   7     2.613236262756   118.85174648   359.77646187
 H     69  67  65     2.045433372373   122.08945297   180.10087908
 C     69  67  65     2.639835993025   119.45620194     0.00000000
 C      7   1   2     2.560511232622   112.12208815   359.86718139
 C      8   1   2     2.558162777297   112.91340892     0.16264459
 C      8   1   2     2.508786679124   127.70876486   179.90240911
 C     73   8   1     4.518544260873    91.19377618   179.62056986
 C     75  73   8     2.668746327256    32.17050446   179.87055702
 C      9   2   1     2.542583928993    53.69055716     0.37750212
 C      9   2   1     2.481859015022    70.91363444   179.83729666
 H     78   9   2     2.042400149303   120.96444928   358.47641387
 C     10   9   2     2.522670622748    18.79486078   181.66360080
 C     10   9   2     2.676803195531   130.34057765   182.01114626
 C     81  10   9     2.620953512995   128.44156408   178.64147984
 H     82  81  10     2.043030838067   122.53037441   359.44977549
 C     82  81  10     2.630928880770   116.88214122   179.84427093
 H     84  82  81     2.044342587890   119.30954536   179.93158019
 C     84  82  81     2.633834858421   121.01076920     0.00000000
 H     86  84  82     2.044588271634   119.47783195   180.03059955
 C     86  84  82     2.637129001785   120.92422644     0.15780342
 H     88  86  84     2.046165593245   120.05006797   179.85053664
 C     88  86  84     2.613964304791   118.65772021   359.94778850
 C     90  88  86     2.861775355923   131.33567589   179.75267693
 C     91  90  88     2.918298397494   111.01182881   298.68582812
 H     92  91  90     2.056035911548   110.56496016   183.36977105
 H     92  91  90     2.060933048863   109.27717774    63.34203236
 H     92  91  90     2.061180515442   111.34258402   304.22284255
 C     91  90  88     2.920998011899   110.95462151    62.68758716
 H     96  91  90     2.061082839464   111.26302158    55.50077617
 H     96  91  90     2.060995257914   109.27606585   296.40059388
 H     96  91  90     2.056134435804   110.51989509   176.32446085
 C     10   9   2     2.760531193414   108.24338586     1.09901401
 H    100  10   9     2.061978168422   110.07706784   260.85048069
 H    100  10   9     2.055973010540   108.71238541   141.32883816
 H    100  10   9     2.049068148178   110.57919979    22.02929844
 C      2   1   3     2.330080566004    20.99594741   177.96131442
 H     75  73   8     2.039980893188   150.79532850   180.03472050
 H     74   8   1     2.042698315735   117.37983145     1.18135728
 C     75  73   8     2.599271171700    88.28210867     0.03535531
 H    107  75  73     2.043901964471   120.96731189   179.91839360

---------------------
BASIS SET INFORMATION
---------------------
There are 5 groups of distinct atoms

 Group   1 Type Cu  : 17s11p5d1f contracted to 17s7p3d1f pattern {11111111111111111/3311111/311/1}
 Group   2 Type O   : 10s5p1d contracted to 6s2p1d pattern {511111/41/1}
 Group   3 Type N   : 10s5p1d contracted to 6s2p1d pattern {511111/41/1}
 Group   4 Type C   : 10s5p1d contracted to 6s2p1d pattern {511111/41/1}
 Group   5 Type H   : 6s1p contracted to 4s1p pattern {3111/1}

Atom   0Cu   basis set group =>   1
Atom   1O    basis set group =>   2
Atom   2N    basis set group =>   3
Atom   3N    basis set group =>   3
Atom   4N    basis set group =>   3
Atom   5N    basis set group =>   3
Atom   6N    basis set group =>   3
Atom   7N    basis set group =>   3
Atom   8N    basis set group =>   3
Atom   9N    basis set group =>   3
Atom  10C    basis set group =>   4
Atom  11C    basis set group =>   4
Atom  12H    basis set group =>   5
Atom  13H    basis set group =>   5
Atom  14C    basis set group =>   4
Atom  15C    basis set group =>   4
Atom  16H    basis set group =>   5
Atom  17H    basis set group =>   5
Atom  18H    basis set group =>   5
Atom  19C    basis set group =>   4
Atom  20H    basis set group =>   5
Atom  21H    basis set group =>   5
Atom  22H    basis set group =>   5
Atom  23C    basis set group =>   4
Atom  24H    basis set group =>   5
Atom  25H    basis set group =>   5
Atom  26H    basis set group =>   5
Atom  27C    basis set group =>   4
Atom  28H    basis set group =>   5
Atom  29H    basis set group =>   5
Atom  30C    basis set group =>   4
Atom  31C    basis set group =>   4
Atom  32C    basis set group =>   4
Atom  33H    basis set group =>   5
Atom  34C    basis set group =>   4
Atom  35H    basis set group =>   5
Atom  36C    basis set group =>   4
Atom  37H    basis set group =>   5
Atom  38C    basis set group =>   4
Atom  39H    basis set group =>   5
Atom  40H    basis set group =>   5
Atom  41C    basis set group =>   4
Atom  42C    basis set group =>   4
Atom  43H    basis set group =>   5
Atom  44H    basis set group =>   5
Atom  45H    basis set group =>   5
Atom  46C    basis set group =>   4
Atom  47H    basis set group =>   5
Atom  48H    basis set group =>   5
Atom  49H    basis set group =>   5
Atom  50C    basis set group =>   4
Atom  51H    basis set group =>   5
Atom  52H    basis set group =>   5
Atom  53H    basis set group =>   5
Atom  54C    basis set group =>   4
Atom  55H    basis set group =>   5
Atom  56H    basis set group =>   5
Atom  57C    basis set group =>   4
Atom  58C    basis set group =>   4
Atom  59H    basis set group =>   5
Atom  60C    basis set group =>   4
Atom  61H    basis set group =>   5
Atom  62C    basis set group =>   4
Atom  63H    basis set group =>   5
Atom  64C    basis set group =>   4
Atom  65H    basis set group =>   5
Atom  66C    basis set group =>   4
Atom  67H    basis set group =>   5
Atom  68C    basis set group =>   4
Atom  69H    basis set group =>   5
Atom  70C    basis set group =>   4
Atom  71C    basis set group =>   4
Atom  72C    basis set group =>   4
Atom  73C    basis set group =>   4
Atom  74C    basis set group =>   4
Atom  75C    basis set group =>   4
Atom  76C    basis set group =>   4
Atom  77C    basis set group =>   4
Atom  78H    basis set group =>   5
Atom  79C    basis set group =>   4
Atom  80C    basis set group =>   4
Atom  81C    basis set group =>   4
Atom  82H    basis set group =>   5
Atom  83C    basis set group =>   4
Atom  84H    basis set group =>   5
Atom  85C    basis set group =>   4
Atom  86H    basis set group =>   5
Atom  87C    basis set group =>   4
Atom  88H    basis set group =>   5
Atom  89C    basis set group =>   4
Atom  90C    basis set group =>   4
Atom  91C    basis set group =>   4
Atom  92H    basis set group =>   5
Atom  93H    basis set group =>   5
Atom  94H    basis set group =>   5
Atom  95C    basis set group =>   4
Atom  96H    basis set group =>   5
Atom  97H    basis set group =>   5
Atom  98H    basis set group =>   5
Atom  99C    basis set group =>   4
Atom 100H    basis set group =>   5
Atom 101H    basis set group =>   5
Atom 102H    basis set group =>   5
Atom 103C    basis set group =>   4
Atom 104H    basis set group =>   5
Atom 105H    basis set group =>   5
Atom 106C    basis set group =>   4
Atom 107H    basis set group =>   5
---------------------------------
AUXILIARY/J BASIS SET INFORMATION
---------------------------------
There are 5 groups of distinct atoms

 Group   1 Type Cu  : 19s5p5d3f3g contracted to 8s5p4d3f3g pattern {121111111/11111/2111/111/111}
 Group   2 Type O   : 12s5p4d2f1g contracted to 6s4p3d1f1g pattern {711111/2111/211/2/1}
 Group   3 Type N   : 12s5p4d2f1g contracted to 6s4p3d1f1g pattern {711111/2111/211/2/1}
 Group   4 Type C   : 12s5p4d2f1g contracted to 6s4p3d1f1g pattern {711111/2111/211/2/1}
 Group   5 Type H   : 5s2p1d contracted to 3s1p1d pattern {311/2/1}

Atom   0Cu   basis set group =>   1
Atom   1O    basis set group =>   2
Atom   2N    basis set group =>   3
Atom   3N    basis set group =>   3
Atom   4N    basis set group =>   3
Atom   5N    basis set group =>   3
Atom   6N    basis set group =>   3
Atom   7N    basis set group =>   3
Atom   8N    basis set group =>   3
Atom   9N    basis set group =>   3
Atom  10C    basis set group =>   4
Atom  11C    basis set group =>   4
Atom  12H    basis set group =>   5
Atom  13H    basis set group =>   5
Atom  14C    basis set group =>   4
Atom  15C    basis set group =>   4
Atom  16H    basis set group =>   5
Atom  17H    basis set group =>   5
Atom  18H    basis set group =>   5
Atom  19C    basis set group =>   4
Atom  20H    basis set group =>   5
Atom  21H    basis set group =>   5
Atom  22H    basis set group =>   5
Atom  23C    basis set group =>   4
Atom  24H    basis set group =>   5
Atom  25H    basis set group =>   5
Atom  26H    basis set group =>   5
Atom  27C    basis set group =>   4
Atom  28H    basis set group =>   5
Atom  29H    basis set group =>   5
Atom  30C    basis set group =>   4
Atom  31C    basis set group =>   4
Atom  32C    basis set group =>   4
Atom  33H    basis set group =>   5
Atom  34C    basis set group =>   4
Atom  35H    basis set group =>   5
Atom  36C    basis set group =>   4
Atom  37H    basis set group =>   5
Atom  38C    basis set group =>   4
Atom  39H    basis set group =>   5
Atom  40H    basis set group =>   5
Atom  41C    basis set group =>   4
Atom  42C    basis set group =>   4
Atom  43H    basis set group =>   5
Atom  44H    basis set group =>   5
Atom  45H    basis set group =>   5
Atom  46C    basis set group =>   4
Atom  47H    basis set group =>   5
Atom  48H    basis set group =>   5
Atom  49H    basis set group =>   5
Atom  50C    basis set group =>   4
Atom  51H    basis set group =>   5
Atom  52H    basis set group =>   5
Atom  53H    basis set group =>   5
Atom  54C    basis set group =>   4
Atom  55H    basis set group =>   5
Atom  56H    basis set group =>   5
Atom  57C    basis set group =>   4
Atom  58C    basis set group =>   4
Atom  59H    basis set group =>   5
Atom  60C    basis set group =>   4
Atom  61H    basis set group =>   5
Atom  62C    basis set group =>   4
Atom  63H    basis set group =>   5
Atom  64C    basis set group =>   4
Atom  65H    basis set group =>   5
Atom  66C    basis set group =>   4
Atom  67H    basis set group =>   5
Atom  68C    basis set group =>   4
Atom  69H    basis set group =>   5
Atom  70C    basis set group =>   4
Atom  71C    basis set group =>   4
Atom  72C    basis set group =>   4
Atom  73C    basis set group =>   4
Atom  74C    basis set group =>   4
Atom  75C    basis set group =>   4
Atom  76C    basis set group =>   4
Atom  77C    basis set group =>   4
Atom  78H    basis set group =>   5
Atom  79C    basis set group =>   4
Atom  80C    basis set group =>   4
Atom  81C    basis set group =>   4
Atom  82H    basis set group =>   5
Atom  83C    basis set group =>   4
Atom  84H    basis set group =>   5
Atom  85C    basis set group =>   4
Atom  86H    basis set group =>   5
Atom  87C    basis set group =>   4
Atom  88H    basis set group =>   5
Atom  89C    basis set group =>   4
Atom  90C    basis set group =>   4
Atom  91C    basis set group =>   4
Atom  92H    basis set group =>   5
Atom  93H    basis set group =>   5
Atom  94H    basis set group =>   5
Atom  95C    basis set group =>   4
Atom  96H    basis set group =>   5
Atom  97H    basis set group =>   5
Atom  98H    basis set group =>   5
Atom  99C    basis set group =>   4
Atom 100H    basis set group =>   5
Atom 101H    basis set group =>   5
Atom 102H    basis set group =>   5
Atom 103C    basis set group =>   4
Atom 104H    basis set group =>   5
Atom 105H    basis set group =>   5
Atom 106C    basis set group =>   4
Atom 107H    basis set group =>   5


           ************************************************************
           *        Program running with 16 parallel MPI-processes    *
           *              working on a common directory               *
           ************************************************************
------------------------------------------------------------------------------
                             ORCA STARTUP CALCULATIONS
                           -- RI-GTO INTEGRALS CHOSEN --
------------------------------------------------------------------------------
------------------------------------------------------------------------------
                   ___                                                        
                  /   \      - P O W E R E D   B Y -                         
                 /     \                                                     
                 |  |  |   _    _      __       _____    __    __             
                 |  |  |  | |  | |    /  \     |  _  \  |  |  /  |          
                  \  \/   | |  | |   /    \    | | | |  |  | /  /          
                 / \  \   | |__| |  /  /\  \   | |_| |  |  |/  /          
                |  |  |   |  __  | /  /__\  \  |    /   |      \           
                |  |  |   | |  | | |   __   |  |    \   |  |\   \          
                \     /   | |  | | |  |  |  |  | |\  \  |  | \   \       
                 \___/    |_|  |_| |__|  |__|  |_| \__\ |__|  \__/        
                                                                              
                      - O R C A' S   B I G   F R I E N D -                    
                                      &                                       
                       - I N T E G R A L  F E E D E R -                       
                                                                              
 v1 FN, 2020, v2 2021, v3 2022-2024                                           
------------------------------------------------------------------------------


----------------------
SHARK INTEGRAL PACKAGE
----------------------

Number of atoms                             ...    108
Number of basis functions                   ...   1359
Number of shells                            ...    783
Maximum angular momentum                    ...      3
Integral batch strategy                     ... SHARK/LIBINT Hybrid
RI-J (if used) integral strategy            ... SPLIT-RIJ (Revised 2003 algorithm where possible)
Printlevel                                  ...      1
Contraction scheme used                     ... SEGMENTED contraction
Prescreening option                         ... SCHWARTZ
   Thresh                                   ... 2.500e-11
   Tcut                                     ... 2.500e-12
   Tpresel                                  ... 2.500e-12 
Coulomb Range Separation                    ... NOT USED
Exchange Range Separation                   ... NOT USED
Multipole approximations                    ... NOT USED
Finite Nucleus Model                        ... NOT USED
CABS basis                                  ... NOT available
Auxiliary Coulomb fitting basis             ... AVAILABLE
   # of basis functions in Aux-J            ...   3358
   # of shells in Aux-J                     ...   1108
   Maximum angular momentum in Aux-J        ...      4
Auxiliary J/K fitting basis                 ... NOT available
Auxiliary Correlation fitting basis         ... NOT available
Auxiliary 'external' fitting basis          ... NOT available

Checking pre-screening integrals            ... done (  0.0 sec) Dimension = 783
Check shell pair data                       ... done (  0.0 sec)
Shell pair information
Shell pair cut-off parameter TPreSel        ...   2.5e-12
Total number of shell pairs                 ...    306936
Shell pairs after pre-screening             ...    132350
Total number of primitive shell pairs       ...    818326
Primitive shell pairs kept                  ...    234182
          la=0 lb=0:  59434 shell pairs
          la=1 lb=0:  45827 shell pairs
          la=1 lb=1:   8411 shell pairs
          la=2 lb=0:  12508 shell pairs
          la=2 lb=1:   5074 shell pairs
          la=2 lb=2:    774 shell pairs
          la=3 lb=0:    189 shell pairs
          la=3 lb=1:     97 shell pairs
          la=3 lb=2:     35 shell pairs
          la=3 lb=3:      1 shell pairs

Calculating one electron integrals          ... done (  0.2 sec)
Calculating RI/J V-Matrix + Cholesky decomp.... done (  0.9 sec)
Calculating Nuclear repulsion               ... done (  0.0 sec) ENN=   9112.101687797547 Eh

Diagonalization of the overlap matrix:
Smallest eigenvalue                        ... 2.018e-05
Time for diagonalization                   ...    0.277 sec
Threshold for overlap eigenvalues          ... 1.000e-07
Number of eigenvalues below threshold      ... 0
Time for construction of square roots      ...    0.244 sec
Total time needed                          ...    0.538 sec

-------------------
DFT GRID GENERATION
-------------------

General Integration Accuracy     IntAcc      ... 4.388
Radial Grid Type                 RadialGrid  ... OptM3 with GC (2021)
Angular Grid (max. ang.)         AngularGrid ... 4 (Lebedev-302)
Angular grid pruning method      GridPruning ... 4 (adaptive)
Weight generation scheme         WeightScheme... mBecke (2022)
Basis function cutoff            BFCut       ... 1.0000e-11
Integration weight cutoff        WCut        ... 1.0000e-14
Partially contracted basis set               ... off
Rotationally invariant grid construction     ... off
Angular grids for H and He will be reduced by one unit
Core-polarized basis detected: some atoms will have their core
                               angular grid increased.
Steep s-basis detected: some atoms will have their radial
                        grid points doubled.

SpecialGrid => Setting IntAcc for atom type =   7 to   8.0000
SpecialGrid => Setting IntAcc for atom type =  29 to   9.0000
SpecialGrid => Setting IntAcc for atom type =   7 to   8.0000
SpecialGrid => Setting IntAcc for atom type =   7 to   8.0000
SpecialGrid => Setting IntAcc for atom type =   7 to   8.0000
SpecialGrid => Setting IntAcc for atom type =   7 to   8.0000
SpecialGrid => Setting IntAcc for atom type =   7 to   8.0000
SpecialGrid => Setting IntAcc for atom type =   7 to   8.0000
SpecialGrid => Setting IntAcc for atom type =   7 to   8.0000
Total number of grid points                  ...   147942
Total number of batches                      ...     2375
Average number of points per batch           ...       62
Average number of grid points per atom       ...     1370

--------------------
COSX GRID GENERATION
--------------------

GRIDX 1
-------
General Integration Accuracy     IntAcc      ... 3.816
Radial Grid Type                 RadialGrid  ... OptM3 with GC (2021)
Angular Grid (max. ang.)         AngularGrid ... 1 (Lebedev-50)
Angular grid pruning method      GridPruning ... 4 (adaptive)
Weight generation scheme         WeightScheme... mBecke (2022)
Basis function cutoff            BFCut       ... 1.0000e-11
Integration weight cutoff        WCut        ... 1.0000e-14
Partially contracted basis set               ... on
Rotationally invariant grid construction     ... off
Angular grids for H and He will be reduced by one unit
Core-polarized basis detected: some atoms will have their core
                               angular grid increased.
Steep s-basis detected: some atoms will have their radial
                        grid points doubled.

SpecialGrid => Setting IntAcc for atom type =   7 to   8.0000
SpecialGrid => Setting IntAcc for atom type =  29 to   9.0000
SpecialGrid => Setting IntAcc for atom type =   7 to   8.0000
SpecialGrid => Setting IntAcc for atom type =   7 to   8.0000
SpecialGrid => Setting IntAcc for atom type =   7 to   8.0000
SpecialGrid => Setting IntAcc for atom type =   7 to   8.0000
SpecialGrid => Setting IntAcc for atom type =   7 to   8.0000
SpecialGrid => Setting IntAcc for atom type =   7 to   8.0000
SpecialGrid => Setting IntAcc for atom type =   7 to   8.0000
Total number of grid points                  ...    95560
Total number of batches                      ...      801
Average number of points per batch           ...      119
Average number of grid points per atom       ...      885
UseSFitting                                  ... on

GRIDX 2
-------
General Integration Accuracy     IntAcc      ... 4.020
Radial Grid Type                 RadialGrid  ... OptM3 with GC (2021)
Angular Grid (max. ang.)         AngularGrid ... 2 (Lebedev-110)
Angular grid pruning method      GridPruning ... 4 (adaptive)
Weight generation scheme         WeightScheme... mBecke (2022)
Basis function cutoff            BFCut       ... 1.0000e-11
Integration weight cutoff        WCut        ... 1.0000e-14
Partially contracted basis set               ... on
Rotationally invariant grid construction     ... off
Angular grids for H and He will be reduced by one unit
Core-polarized basis detected: some atoms will have their core
                               angular grid increased.
Steep s-basis detected: some atoms will have their radial
                        grid points doubled.

SpecialGrid => Setting IntAcc for atom type =   7 to   8.0000
SpecialGrid => Setting IntAcc for atom type =  29 to   9.0000
SpecialGrid => Setting IntAcc for atom type =   7 to   8.0000
SpecialGrid => Setting IntAcc for atom type =   7 to   8.0000
SpecialGrid => Setting IntAcc for atom type =   7 to   8.0000
SpecialGrid => Setting IntAcc for atom type =   7 to   8.0000
SpecialGrid => Setting IntAcc for atom type =   7 to   8.0000
SpecialGrid => Setting IntAcc for atom type =   7 to   8.0000
SpecialGrid => Setting IntAcc for atom type =   7 to   8.0000
Total number of grid points                  ...    95560
Total number of batches                      ...      801
Average number of points per batch           ...      119
Average number of grid points per atom       ...      885
UseSFitting                                  ... on

GRIDX 3
-------
General Integration Accuracy     IntAcc      ... 4.338
Radial Grid Type                 RadialGrid  ... OptM3 with GC (2021)
Angular Grid (max. ang.)         AngularGrid ... 3 (Lebedev-194)
Angular grid pruning method      GridPruning ... 4 (adaptive)
Weight generation scheme         WeightScheme... mBecke (2022)
Basis function cutoff            BFCut       ... 1.0000e-11
Integration weight cutoff        WCut        ... 1.0000e-14
Partially contracted basis set               ... on
Rotationally invariant grid construction     ... off
Angular grids for H and He will be reduced by one unit
Core-polarized basis detected: some atoms will have their core
                               angular grid increased.
Steep s-basis detected: some atoms will have their radial
                        grid points doubled.

SpecialGrid => Setting IntAcc for atom type =   7 to   8.0000
SpecialGrid => Setting IntAcc for atom type =  29 to   9.0000
SpecialGrid => Setting IntAcc for atom type =   7 to   8.0000
SpecialGrid => Setting IntAcc for atom type =   7 to   8.0000
SpecialGrid => Setting IntAcc for atom type =   7 to   8.0000
SpecialGrid => Setting IntAcc for atom type =   7 to   8.0000
SpecialGrid => Setting IntAcc for atom type =   7 to   8.0000
SpecialGrid => Setting IntAcc for atom type =   7 to   8.0000
SpecialGrid => Setting IntAcc for atom type =   7 to   8.0000
Total number of grid points                  ...    95560
Total number of batches                      ...      801
Average number of points per batch           ...      119
Average number of grid points per atom       ...      885
UseSFitting                                  ... on
Initializing property integral containers    ... done (  0.0 sec)

SHARK setup successfully completed in  12.4 seconds

Maximum memory used throughout the entire STARTUP-calculation: 325.1 MB


           ************************************************************
           *        Program running with 16 parallel MPI-processes    *
           *              working on a common directory               *
           ************************************************************
-------------------------------------------------------------------------------
                                 ORCA GUESS
                   Start orbitals & Density for SCF / CASSCF
-------------------------------------------------------------------------------

------------
SCF SETTINGS
------------
Hamiltonian:
 Density Functional     Method          .... DFT(GTOs)
 Exchange Functional    Exchange        .... B88
   X-Alpha parameter    XAlpha          ....  0.666667
   Becke's b parameter  XBeta           ....  0.004200
 Correlation Functional Correlation     .... LYP
 LDA part of GGA corr.  LDAOpt          .... VWN-5
 Gradients option       PostSCFGGA      .... off
 Hybrid DFT is turned on
   Fraction HF Exchange ScalHFX         ....  0.200000
   Scaling of DF-GGA-X  ScalDFX         ....  0.720000
   Scaling of DF-GGA-C  ScalDFC         ....  0.810000
   Scaling of DF-LDA-C  ScalLDAC        ....  1.000000
   Perturbative correction              ....  0.000000
   NL short-range parameter             ....  4.800000
 RI-approximation to the Coulomb term is turned on
   Number of AuxJ basis functions       .... 3358
   RIJ-COSX (HFX calculated with COS-X)).... on


General Settings:
 Integral files         IntName         .... system
 Hartree-Fock type      HFTyp           .... UHF
 Total Charge           Charge          ....    2
 Multiplicity           Mult            ....    2
 Number of Electrons    NEL             ....  419
 Basis Dimension        Dim             .... 1359
 Nuclear Repulsion      ENuc            ....   9112.1016877975 Eh

Convergence Acceleration:
 AO-DIIS                CNVDIIS         .... on
   Start iteration      DIISMaxIt       ....    12
   Startup error        DIISStart       ....  0.200000
   # of expansion vecs  DIISMaxEq       ....     5
   Bias factor          DIISBfac        ....   1.050
   Max. coefficient     DIISMaxC        ....  10.000
 MO-DIIS                CNVKDIIS        .... off
 Trust-Rad. Augm. Hess. CNVTRAH         .... auto
   Auto Start mean grad. ratio tolernc. ....  1.125000
   Auto Start start iteration           ....    50
   Auto Start num. interpolation iter.  ....    10
   Max. Number of Micro iterations      ....    24
   Max. Number of Macro iterations      .... Maxiter - #DIIS iter
   Number of Davidson start vectors     ....     2
   Converg. threshold    (grad. norm)   ....   1.000e-05
   Grad. Scal. Fac. for Micro threshold ....   0.100
   Minimum threshold for Micro iter.    ....   1.000e-02
   NR start threshold (gradient norm)   ....   1.000e-04
   Initial trust radius                 ....   0.400
   Minimum AH scaling param. (alpha)    ....   1.000
   Maximum AH scaling param. (alpha)    .... 1000.000
   Quad. conv. algorithm                .... NR
   White noise on init. David. guess    .... on
   Maximum white noise                  ....   0.010
   Pseudo random numbers                .... off
   Inactive MOs                         .... canonical
   Orbital update algorithm             .... Taylor
   Preconditioner                       .... Diag
   Full preconditioner red. dimension   ....   250
 SOSCF                  CNVSOSCF        .... on
   Start iteration      SOSCFMaxIt      ....   150
   Startup grad/error   SOSCFStart      ....  0.003300
   Hessian update       SOSCFHessUp     .... L-BFGS
 Level Shifting         CNVShift        .... on
   Level shift para.    LevelShift      ....    0.2500
   Turn off err/grad.   ShiftErr        ....    0.0010
 Zerner damping         CNVZerner       .... off
 Static damping         CNVDamp         .... on
   Fraction old density DampFac         ....    0.7000
   Max. Damping (<1)    DampMax         ....    0.9800
   Min. Damping (>=0)   DampMin         ....    0.0000
   Turn off err/grad.   DampErr         ....    0.1000

SCF Procedure:
 Maximum # iterations   MaxIter         ....   125
 SCF integral mode      SCFMode         .... Direct
   Integral package                     .... SHARK and LIBINT hybrid scheme
 Reset frequency        DirectResetFreq ....    20
 Integral Threshold     Thresh          ....  2.500e-11 Eh
 Primitive CutOff       TCut            ....  2.500e-12 Eh

Convergence Tolerance:
 Convergence Check Mode ConvCheckMode   .... Total+1el-Energy
 Convergence forced     ConvForced      .... 0
 Energy Change          TolE            ....  1.000e-08 Eh
 1-El. energy change                    ....  1.000e-05 Eh
 Orbital Gradient       TolG            ....  1.000e-05
 Orbital Rotation angle TolX            ....  1.000e-05
 DIIS Error             TolErr          ....  5.000e-07

------------------------------
INITIAL GUESS: MODEL POTENTIAL
------------------------------
Loading Hartree-Fock densities                     ... done
Calculating cut-offs                               ... done
Initializing the effective Hamiltonian             ... done
Setting up the integral package (SHARK)            ... done
Starting the Coulomb interaction                   ... done (   2.6 sec)
Making the grid                                    ... done (   1.4 sec)
Mapping shells                                     ... done
Starting the XC term evaluation                    ... done (   0.6 sec)
  promolecular density results
     # of electrons  =    421.004845970
     EX              =   -378.944316241
     EC              =    -14.682462599
     EX+EC           =   -393.626778841
Transforming the Hamiltonian                       ... done (   0.2 sec)
Diagonalizing the Hamiltonian                      ... done (   0.3 sec)
Back transforming the eigenvectors                 ... done (   0.1 sec)
Now organizing SCF variables                       ... done
                      ------------------
                      INITIAL GUESS DONE (   5.6 sec)
                      ------------------
             **** ENERGY FILE WAS UPDATED (system.en.tmp) ****
Finished Guess after  19.6 sec
Maximum memory used throughout the entire GUESS-calculation: 195.4 MB


           ************************************************************
           *        Program running with 16 parallel MPI-processes    *
           *              working on a common directory               *
           ************************************************************

-------------------------------------------------------------------------------------------
                                      ORCA LEAN-SCF
                              memory conserving SCF solver
-------------------------------------------------------------------------------------------

----------------------------------------D-I-I-S--------------------------------------------
Iteration    Energy (Eh)           Delta-E    RMSDP     MaxDP     DIISErr   Damp  Time(sec)
-------------------------------------------------------------------------------------------
               ***  Starting incremental Fock matrix formation  ***
    1    -3935.2772108089720859     0.00e+00  2.11e-03  8.02e-01  2.81e-01  0.700  36.1
Warning: op=0 Small HOMO/LUMO gap (   0.081) - skipping pre-diagonalization
         Will do a full diagonalization
    2    -3935.8023373805790470    -5.25e-01  1.65e-03  8.15e-01  1.97e-01  0.700  29.0
                               ***Turning on AO-DIIS***
    3    -3936.0186862409846071    -2.16e-01  1.10e-03  6.00e-01  1.38e-01  0.700  29.5
    4    -3936.1464404539092357    -1.28e-01  6.98e-04  3.64e-01  9.65e-02  0.700  24.8
    5    -3936.2317391306769423    -8.53e-02  1.60e-03  8.22e-01  6.77e-02  0.000  23.7
    6    -3936.4278458408243750    -1.96e-01  9.72e-05  3.35e-02  6.19e-03  0.000  25.2
    7    -3936.4280776926407270    -2.32e-04  2.87e-05  7.09e-03  8.35e-03  0.000  21.2
                              *** Initializing SOSCF ***
---------------------------------------S-O-S-C-F--------------------------------------
Iteration    Energy (Eh)           Delta-E    RMSDP     MaxDP     MaxGrad    Time(sec)
--------------------------------------------------------------------------------------
    8    -3936.4285725876925426    -4.95e-04  1.75e-05  6.21e-03  2.29e-03    20.4
               *** Restarting incremental Fock matrix formation ***
    9    -3936.4286387481115526    -6.62e-05  2.18e-05  1.07e-02  9.77e-04    35.3
   10    -3936.4286572110686393    -1.85e-05  2.16e-05  1.12e-02  4.69e-04    21.6
   11    -3936.4286719293650094    -1.47e-05  7.67e-06  2.28e-03  2.44e-04    21.3
   12    -3936.4286741242140124    -2.19e-06  3.91e-06  1.99e-03  7.05e-05    19.2
   13    -3936.4286746344769199    -5.10e-07  3.35e-06  1.12e-03  6.67e-05    19.3
   14    -3936.4286750658066012    -4.31e-07  2.53e-06  1.63e-03  5.37e-05    16.2
   15    -3936.4286749549373781     1.11e-07  2.89e-06  2.58e-03  5.95e-05    15.2
   16    -3936.4286749209331902     3.40e-08  2.12e-06  1.30e-03  4.14e-05    15.4
   17    -3936.4286750349874637    -1.14e-07  4.29e-06  3.09e-03  1.91e-05    14.8
   18    -3936.4286748875765625     1.47e-07  5.43e-06  3.86e-03  8.73e-06    16.0
   19    -3936.4286748771737621     1.04e-08  4.22e-06  3.16e-03  5.33e-06    17.4
   20    -3936.4286750122573721    -1.35e-07  2.42e-06  2.06e-03  2.47e-06    29.1
                  *** Gradient check signals convergence ***

               *****************************************************
               *                     SUCCESS                       *
               *           SCF CONVERGED AFTER  20 CYCLES          *
               *****************************************************

Recomputing exchange energy using gridx3       ... done (   26.053 sec)
Old exchange energy                            :    -76.652694948 Eh
New exchange energy                            :    -76.652694874 Eh
Exchange energy change after final integration :      0.000000073 Eh
Total energy after final integration           :  -3936.428674939 Eh
             **** ENERGY FILE WAS UPDATED (system.en.tmp) ****

----------------
TOTAL SCF ENERGY
----------------

Total Energy       :      -3936.42867493898302 Eh         -107115.66990 eV

Components:
Nuclear Repulsion  :       9112.10168779754713 Eh          247952.89261 eV
Electronic Energy  :     -13048.53036280980450 Eh         -355068.56251 eV
One Electron Energy:     -23484.03185026541178 Eh         -639032.99446 eV
Two Electron Energy:      10435.50148745560728 Eh          283964.43195 eV

Virial components:
Potential Energy   :      -7855.48472048083477 Eh         -213758.60652 eV
Kinetic Energy     :       3919.05604554185174 Eh          106642.93662 eV
Virial Ratio       :          2.00443286066728

DFT components:
N(Alpha)           :      210.024304522346 electrons
N(Beta)            :      209.024304373187 electrons
N(Total)           :      419.048608895533 electrons
E(X)               :     -304.650051896650 Eh       
E(C)               :      -17.159564057143 Eh       
E(XC)              :     -321.809615953792 Eh       

---------------
SCF CONVERGENCE
---------------

  Last Energy change         ...    1.3508e-07  Tolerance :   1.0000e-08
  Last MAX-Density change    ...    2.0618e-03  Tolerance :   1.0000e-07
  Last RMS-Density change    ...    2.4231e-06  Tolerance :   5.0000e-09
  Last DIIS Error            ...    2.2857e-03  Tolerance :   5.0000e-07
  Last Orbital Gradient      ...    2.4704e-06  Tolerance :   1.0000e-05
  Last Orbital Rotation      ...    2.3285e-05  Tolerance :   1.0000e-05


----------------------
UHF SPIN CONTAMINATION
----------------------

Warning: in a DFT calculation there is little theoretical justification to 
[...]
     X        0.3060861       0.9464419       0.1027568
     Y        0.7960411      -0.3136458       0.5176339
     Z        0.5221397      -0.0766419      -0.8494093

 Note: Tensor is right-handed

 Contributions:
 V(El )       0.2444800       0.6597751  -0.9042551
 V(Nuc)       0.2569358      -0.0062614  -0.2506744

 Quadrupole tensor eigenvalues (in MHz;Q= 0.0204 I=  1.0)
  e**2qQ            =    -5.546762 MHz 
  e**2qQ/(4I*(2I-1))=    -1.386691 MHz 
  eta               =     0.131694
  NOTE: the diagonal representation of the SH term I*Q*I = e**2qQ/(4I(2I-1))*[-(1-eta),-(1+eta),2]

 -----------------------------------------------------------
 Nucleus   6N : A  : Isotope=   14 I=  1.0 P= 38.5677 MHz/au**3 
                Q  : Isotope=   14 I=  1.0 Q=  0.0204 barn      
                HFC: iso  =YES dip=YES orb=YES gauge=YES    
                EFG: fgrad=YES rho= NO                      
 -----------------------------------------------------------

 Total HFC matrix (all values in MHz): 
 ----------------------------------------------------------------
                33.4324               1.3793               3.2455
                 1.3694              34.2326               3.0229
                 3.2319               3.0268              41.9814

 A(FC)          36.6501              36.6501              36.6501
 A(SD)          -4.2709              -3.2187               7.4896
 A(ORB+DIA)     -0.1507              -0.1836               0.0304    A(PC) =   -0.1013
 A(ORB)         -0.1502              -0.1833               0.0300    A(PC) =   -0.1012
 A(DIA)         -0.0004              -0.0003               0.0003    A(PC) =   -0.0001
             ----------           ----------           ----------
 A(Tot)         32.2286              33.2478              44.1701    A(iso)=   36.5488
 Orientation: 
  X           0.9237826            0.2228876            0.3113630
  Y          -0.3217864            0.8926180            0.3157319
  Z          -0.2075555           -0.3918600            0.8963071

Notes:  (1) The A matrix conforms to the "SAI" spin Hamiltonian convention.
        (2) Tensor is right-handed.

 Raw EFG matrix (all values in a.u.**-3):
 ------------------------------------------------------
              0.2288474      -0.1261861      -0.2759857
             -0.1261861       0.1559190      -0.1998992
             -0.2759857      -0.1998992      -0.3847665

 V(Tot)       0.2143945       0.3509955      -0.5653900
 Orientation: 
     X        0.2149920       0.9096017      -0.3555324
     Y        0.8923902      -0.3308673      -0.3068656
     Z       -0.3967595      -0.2513000      -0.8828534

 Note: Tensor is right-handed

 Contributions:
 V(El )       1.7834346      -0.1663212  -1.6171134
 V(Nuc)      -1.5690401       0.5173167   1.0517234

 Quadrupole tensor eigenvalues (in MHz;Q= 0.0204 I=  1.0)
  e**2qQ            =    -2.715390 MHz 
  e**2qQ/(4I*(2I-1))=    -0.678847 MHz 
  eta               =     0.241605
  NOTE: the diagonal representation of the SH term I*Q*I = e**2qQ/(4I(2I-1))*[-(1-eta),-(1+eta),2]

 -----------------------------------------------------------
 Nucleus   7N : A  : Isotope=   14 I=  1.0 P= 38.5677 MHz/au**3 
                Q  : Isotope=   14 I=  1.0 Q=  0.0204 barn      
                HFC: iso  =YES dip=YES orb=YES gauge=YES    
                EFG: fgrad=YES rho= NO                      
 -----------------------------------------------------------

 Total HFC matrix (all values in MHz): 
 ----------------------------------------------------------------
                38.0046              -3.5115              -4.9366
                -3.5096              35.1257               2.6538
                -4.9196               2.6493              36.0857

 A(FC)          36.5099              36.5099              36.5099
 A(SD)          -4.3584              -3.2958               7.6541
 A(ORB+DIA)     -0.1557              -0.1903               0.0323    A(PC) =   -0.1046
 A(ORB)         -0.1553              -0.1900               0.0320    A(PC) =   -0.1044
 A(DIA)         -0.0004              -0.0003               0.0004    A(PC) =   -0.0001
             ----------           ----------           ----------
 A(Tot)         31.9958              33.0238              44.1964    A(iso)=   36.4053
 Orientation: 
  X          -0.6779654            0.2287046            0.6986109
  Y          -0.1499775            0.8873442           -0.4360357
  Z          -0.7196317           -0.4003930           -0.5672880

Notes:  (1) The A matrix conforms to the "SAI" spin Hamiltonian convention.
        (2) Tensor is right-handed.

 Raw EFG matrix (all values in a.u.**-3):
 ------------------------------------------------------
             -0.1703652       0.2671357       0.3577405
              0.2671357       0.1047872      -0.1736226
              0.3577405      -0.1736226       0.0655780

 V(Tot)       0.2504010       0.3271396      -0.5775406
 Orientation: 
     X        0.2255430      -0.6352338      -0.7386531
     Y        0.8889813      -0.1759759       0.4227821
     Z       -0.3985506      -0.7520044       0.5250208

 Note: Tensor is right-handed

 Contributions:
 V(El )       1.8367540      -0.1627027  -1.6740514
 V(Nuc)      -1.5863530       0.4898423   1.0965107

 Quadrupole tensor eigenvalues (in MHz;Q= 0.0204 I=  1.0)
  e**2qQ            =    -2.773746 MHz 
  e**2qQ/(4I*(2I-1))=    -0.693436 MHz 
  eta               =     0.132871
  NOTE: the diagonal representation of the SH term I*Q*I = e**2qQ/(4I(2I-1))*[-(1-eta),-(1+eta),2]

 -----------------------------------------------------------
 Nucleus   8N : A  : Isotope=   14 I=  1.0 P= 38.5677 MHz/au**3 
                Q  : Isotope=   14 I=  1.0 Q=  0.0204 barn      
                HFC: iso  =YES dip=YES orb=YES gauge=YES    
                EFG: fgrad=YES rho= NO                      
 -----------------------------------------------------------

 Total HFC matrix (all values in MHz): 
 ----------------------------------------------------------------
                 0.1246              -0.0244              -0.0337
                -0.0250               0.1196               0.0339
                -0.0344               0.0339               0.1476

 A(FC)           0.1316               0.1316               0.1316
 A(SD)          -0.0321              -0.0306               0.0628
 A(ORB+DIA)     -0.0032              -0.0008               0.0009    A(PC) =   -0.0010
 A(ORB)         -0.0032              -0.0008               0.0009    A(PC) =   -0.0010
 A(DIA)         -0.0000              -0.0000               0.0000    A(PC) =   -0.0000
             ----------           ----------           ----------
 A(Tot)          0.0963               0.1002               0.1953    A(iso)=    0.1306
 Orientation: 
  X           0.2918382           -0.8096179           -0.5092635
  Y           0.8741602            0.0096898            0.4855410
  Z          -0.3881680           -0.5868772            0.7105636

Notes:  (1) The A matrix conforms to the "SAI" spin Hamiltonian convention.
        (2) Tensor is right-handed.

 Raw EFG matrix (all values in a.u.**-3):
 ------------------------------------------------------
             -0.8549720       0.1539320      -0.6555008
              0.1539320       0.7254404      -0.1412050
             -0.6555008      -0.1412050       0.1295316

 V(Tot)       0.3552014       0.8302182      -1.1854195
 Orientation: 
     X       -0.3760522       0.2363333      -0.8959527
     Y        0.4625600       0.8857083       0.0394838
     Z        0.8028841      -0.3995840      -0.4423909

 Note: Tensor is right-handed

 Contributions:
 V(El )      -1.3073371       2.1754984  -0.8681612
 V(Nuc)       1.6625385      -1.3452802  -0.3172583

 Quadrupole tensor eigenvalues (in MHz;Q= 0.0204 I=  1.0)
  e**2qQ            =    -5.693196 MHz 
  e**2qQ/(4I*(2I-1))=    -1.423299 MHz 
  eta               =     0.400716
  NOTE: the diagonal representation of the SH term I*Q*I = e**2qQ/(4I(2I-1))*[-(1-eta),-(1+eta),2]

 -----------------------------------------------------------
 Nucleus   9N : A  : Isotope=   14 I=  1.0 P= 38.5677 MHz/au**3 
                Q  : Isotope=   14 I=  1.0 Q=  0.0204 barn      
                HFC: iso  =YES dip=YES orb=YES gauge=YES    
                EFG: fgrad=YES rho= NO                      
 -----------------------------------------------------------

 Total HFC matrix (all values in MHz): 
 ----------------------------------------------------------------
                -0.0023               0.0001              -0.0069
                 0.0002               0.0116              -0.0000
                -0.0069              -0.0001               0.0098

 A(FC)           0.0065               0.0065               0.0065
 A(SD)          -0.0117               0.0053               0.0064
 A(ORB+DIA)     -0.0002              -0.0002               0.0000    A(PC) =   -0.0001
 A(ORB)         -0.0002              -0.0002               0.0000    A(PC) =   -0.0001
 A(DIA)         -0.0000              -0.0000               0.0000    A(PC) =   -0.0000
             ----------           ----------           ----------
 A(Tot)         -0.0054               0.0116               0.0130    A(iso)=    0.0064
 Orientation: 
  X           0.9106682            0.0254371            0.4123546
  Y          -0.0065942           -0.9970806            0.0760704
  Z           0.4130858           -0.0719940           -0.9078419

Notes:  (1) The A matrix conforms to the "SAI" spin Hamiltonian convention.
        (2) Tensor is right-handed.

 Raw EFG matrix (all values in a.u.**-3):
 ------------------------------------------------------
              0.2053336      -0.1211188       0.0741385
             -0.1211188      -0.3308634       0.2601221
              0.0741385       0.2601221       0.1255298

 V(Tot)       0.2211236       0.2566618      -0.4777854
 Orientation: 
     X        0.7744454       0.5994737      -0.2021521
     Y       -0.4006546       0.2174569      -0.8900496
     Z       -0.4896020       0.7702881       0.4085904

 Note: Tensor is right-handed

 Contributions:
 V(El )      -0.4291506      -0.5518334   0.9809840
 V(Nuc)       0.6502742       0.8084952  -1.4587693

 Quadrupole tensor eigenvalues (in MHz;Q= 0.0204 I=  1.0)
  e**2qQ            =    -2.294652 MHz 
  e**2qQ/(4I*(2I-1))=    -0.573663 MHz 
  eta               =     0.074381
  NOTE: the diagonal representation of the SH term I*Q*I = e**2qQ/(4I(2I-1))*[-(1-eta),-(1+eta),2]


Hyperfine and quadrupole coupling calculation done in  84.2 sec 
----------------------------------------------------------------------------
                           ORCA EULER ANGLE PROGRAM
----------------------------------------------------------------------------

Only g-tensor available        -->  using g-tensor as reference tensor

Reference tensor               ...  g

g-tensor ordering              ...  |g_min> --> |gx>
                                    |g_mid> --> |gy>
                                    |g_max> --> |gz>

A- and EFG-tensor ordering     ...  the axes |Ax>, |Qx>, |Ay>, etc. are assigned
                                    such that the Euler rotation is minimal. You
                                    can find the respective eigenvalues as Ax,
                                    EFGx, Ay, etc. in the tables below.
                                    The relation of |Ax>, |Ay>,  etc. to Amin, Amid, etc.
                                    (as printed in the ORCA EPR/NMR CALCULATION Output)
                                    is obtained in the detailed printout.

Euler rotation around          ...  z - y - z
   First rotation              -->  by alpha around z
   Second rotation             -->  by beta around y'
   Third rotation              -->  by gamma around z''
   Positive / Negative angle   -->  clockwise / counterclockwise rotation

Plot EFG-tensors                    (-)
Plot HFC-tensors                    (-)
Detailed Printout                   (-)

-------------------------------------------------------------------------
          Euler rotation of hyperfine tensor to g-tensor
-------------------------------------------------------------------------

-------------------------------------------------------------------
 Atom  |   Alpha    Beta    Gamma   |   Ax       Ay       Az 
       |          [degrees]         |           [MHz]         
-------------------------------------------------------------------
  0Cu     -96.7      0.4     98.9      40.85    36.55  -557.04
  2N        3.7     11.4    -19.6      39.31    51.61    37.74
  3N      179.6     12.4   -149.5      -1.03    -0.96    -0.35
  4N       86.6     11.1   -113.4      51.50    39.10    37.50
  5N        5.3     12.2     13.7      -1.01    -0.94    -0.34
  6N     -114.6      1.6    106.4      44.17    32.23    33.25
  7N     -122.4      2.0     88.7      32.00    44.20    33.02
  8N      -57.1      5.7     99.7       0.20     0.10     0.10
  9N      179.1     30.6   -146.8       0.01    -0.01     0.01
-------------------------------------------------------------------


-------------------------------------------------------------------------------
    Euler rotation of Electric Field Gradient (EFG) tensor to g-tensor
-------------------------------------------------------------------------------

-------------------------------------------------------------------
 Atom  |   Alpha    Beta    Gamma  |   EFGx     EFGy     EFGz
       |          [degrees]        |         [a.u.**-3]       
-------------------------------------------------------------------
  0Cu     -86.3      0.7    112.3      0.88     1.09    -1.97
  2N       28.4      1.7    -43.7      0.24    -0.63     0.39
  3N       95.6     34.6   -137.2      0.65     0.49    -1.14
  4N       58.5      1.4    -86.0     -0.63     0.24     0.39
  5N       -6.6     34.8      4.5      0.50     0.65    -1.15
  6N     -106.6      1.1     95.7     -0.57     0.35     0.21
  7N     -122.0      1.8     91.8      0.33    -0.58     0.25
  8N      -57.7      2.4     91.0      0.36    -1.19     0.83
  9N      -64.3      0.9     37.1      0.26     0.22    -0.48
-------------------------------------------------------------------


Maximum memory used throughout the entire PROP-calculation: 440.6 MB

--------------------------------
SUGGESTED CITATIONS FOR THIS RUN
--------------------------------

Below you find a list of papers that are relevant to this ORCA run
We neither can nor want to force you to cite these papers, but we appreciate if you do
You receive ORCA, which is the product of decades of hard work by many enthusiastic individuals, for free
The only thing we kindly ask in return is that you cite our papers,
We deeply appreciate it, if you show your appreciation for ORCA by not just citing the generic ORCA reference.

Please note that relegating all ORCA citations to the supporting information does *not* help us.
SI sections are not indexed - citations you put there will not count into any citation statistics
But we need these citations in order to attract the funding resources that allow us to do what we are doing

Therefore, if you are a happy ORCA user, please consider citing a few of the papers listed below in the main body of your paper

In addition to the list printed below, the program has created the file system.bibtex that contains the list in bibtex format
You can import this file easily into all common literature databanks and citation aid programs


List of essential papers. We consider these as the minimum necessary citations

  1. Neese,F.
     Software update: the ORCA program system, version 5.0
     WIRES Comput. Molec. Sci., 2022 12(1)e1606
     doi.org/10.1002/wcms.1606

List of papers to cite with high priority. The work reported in these papers was absolutely
necessary for this run to complete.
Our perspective: the developers of density functionals and basis sets usually get cited in chemistry papers
Good! But without the algorithms to do something with them, the functionals or basis sets would not do anything.
Hence, in our opinion, the algorithm design and method developments papers are equally worthy of getting cited

  1. Neese,F.
     Prediction of electron paramagnetic resonance g values using coupled perturbed Hartree-Fock and Kohn-Sham theory
     J. Chem. Phys., 2001 115(24)11080-11096
     doi.org/10.1063/1.1419058
  2. Neese,F.
     An improvement of the resolution of the identity approximation for the formation of the Coulomb matrix
     J. Comp. Chem., 2003 24(14)1740-1747
     doi.org/10.1002/jcc.10318
  3. Neese,F.
     Metal and ligand hyperfine couplings in transition metal complexes: The effect of spin-orbit coupling as studied by coupled perturbed Kohn-Sham theory
     J. Chem. Phys., 2003 118(9)3939-3948
     doi.org/10.1063/1.1540619
  4. Neese,F.
     Efficient and accurate approximations to the molecular spin-orbit coupling operator and their use in molecular g-tensor calculations
     J. Chem. Phys., 2005 122(3)Art. No. 034107
     doi.org/10.1063/1.1829047
  5. Neese,F.; Wennmohs,F.; Hansen,A.; Becker,U.
     Efficient, approximate and parallel Hartree-Fock and hybrid DFT calculations. A 'chain-of-spheres' algorithm for the Hartree-Fock exchange
     Chem. Phys., 2009 356(1-3)98-109
     doi.org/10.1016/j.chemphys.2008.10.036
  6. Helmich-Paris,B.; de Souza,B.; Neese,F.; Izsák,R.
     An improved chain of spheres for exchange algorithm
     J. Chem. Phys., 2021 155 104109
     doi.org/doi: 10.1063/5.0058766.
  7. Neese,F.
     The SHARK Integral Generation and Digestion System
     J. Comp. Chem., 2022  1-16
     doi.org/10.1002/jcc.26942

List of suggested additional citations. These are papers that are important in the 'surrounding' of 
of this run, or papers that preceded the highly important papers. If you like your results we are grateful for a citation.

  1. Neese,F.
     Theoretical study of ligand superhyperfine structure. Application to Cu(II) complexes
     J. Phys. Chem. A, 2001 105(17)4290-4299
     doi.org/10.1021/jp003254f
  2. Izsak,R.; Neese,F.
     An overlap fitted chain of spheres exchange method
     J. Chem. Phys., 2011 135 144105
     doi.org/10.1063/1.3646921
  3. Izsak,R.; Hansen,A.; Neese,F.
     The resolution of identity and chain of spheres approximations for the LPNO-CCSD singles Fock term
     Molec. Phys., 2012 110 2413-2417
     doi.org/10.1080/00268976.2012.687466
  4. Neese,F.
     The ORCA program system
     WIRES Comput. Molec. Sci., 2012 2(1)73-78
     doi.org/10.1002/wcms.81
  5. Izsak,R.; Neese,F.; Klopper,W.
     Robust fitting techniques in the chain of spheres approximation to the Fock exchange: The role of the complementary space
     J. Chem. Phys., 2013 139 
     doi.org/10.1063/1.4819264
  6. Neese,F.
     Software update: the ORCA program system, version 4.0
     WIRES Comput. Molec. Sci., 2018 8(1)1-6
     doi.org/10.1002/wcms.1327
  7. Neese,F.; Wennmohs,F.; Becker,U.; Riplinger,C.
     The ORCA quantum chemistry program package
     J. Chem. Phys., 2020 152 Art. No. L224108
     doi.org/10.1063/5.0004608

List of optional additional citations

  1. Neese,F.
     Approximate second-order SCF convergence for spin unrestricted wavefunctions
     Chem. Phys. Lett., 2000 325(1-3)93-98
     doi.org/10.1016/s0009-2614(00)00662-x

Timings for individual modules:

Sum of individual times          ...     3646.164 sec (=  60.769 min)
Startup calculation              ...       29.137 sec (=   0.486 min)   0.8 %
SCF iterations                   ...      604.959 sec (=  10.083 min)  16.6 %
Property integrals               ...      300.843 sec (=   5.014 min)   8.3 %
SCF Response                     ...     2613.233 sec (=  43.554 min)  71.7 %
Property calculations            ...       97.991 sec (=   1.633 min)   2.7 %
                             ****ORCA TERMINATED NORMALLY****
TOTAL RUN TIME: 0 days 1 hours 0 minutes 47 seconds 796 msec
