
                                 *****************
                                 * O   R   C   A *
                                 *****************

                                            #,                                       
                                            ###                                      
                                            ####                                     
                                            #####                                    
                                            ######                                   
                                           ########,                                 
                                     ,,################,,,,,                         
                               ,,#################################,,                 
                          ,,##########################################,,             
                       ,#########################################, ''#####,          
                    ,#############################################,,   '####,        
                  ,##################################################,,,,####,       
                ,###########''''           ''''###############################       
              ,#####''   ,,,,##########,,,,          '''####'''          '####       
            ,##' ,,,,###########################,,,                        '##       
           ' ,,###''''                  '''############,,,                           
         ,,##''                                '''############,,,,        ,,,,,,###''
      ,#''                                            '''#######################'''  
     '                                                          ''''####''''         
             ,#######,   #######,   ,#######,      ##                                
            ,#'     '#,  ##    ##  ,#'     '#,    #''#        ,####,   ,####,        
            ##       ##  ##   ,#'  ##            #'  '#       #'       #'  '#        
            ##       ##  #######   ##           ,######,      #####,   #    #        
            '#,     ,#'  ##    ##  '#,     ,#' ,#      #,     #,   #   #,  ,#        
             '#######'   ##     ##  '#######'  #'      '#     '####' # '####'        



                #########################################################
                #                        -***-                          #
                #          Department of theory and spectroscopy        #
                #                                                       #
                #                      Frank Neese                      #
                #                                                       #
                #     Directorship, Architecture, Infrastructure        #
                #                    SHARK, DRIVERS                     #
                #        Core code/Algorithms in most modules           #
                #                                                       #
                #        Max Planck Institute fuer Kohlenforschung      #
                #                Kaiser Wilhelm Platz 1                 #
                #                 D-45470 Muelheim/Ruhr                 #
                #                      Germany                          #
                #                                                       #
                #                  All rights reserved                  #
                #                        -***-                          #
                #########################################################


                         Program Version 6.0.0  -   RELEASE  -


 With contributions from (in alphabetic order):
   Daniel Aravena         : Magnetic Suceptibility
   Michael Atanasov       : Ab Initio Ligand Field Theory (pilot matlab implementation)
   Alexander A. Auer      : GIAO ZORA, VPT2 properties, NMR spectrum
   Ute Becker             : All parallelization in ORCA, NUMFREQ, NUMCALC
   Giovanni Bistoni       : ED, misc. LED, open-shell LED, HFLD
   Martin Brehm           : Molecular dynamics
   Dmytro Bykov           : pre 5.0 version of the SCF Hessian
   Marcos Casanova-Páez   : Triplet and SCS-CIS(D). UHF-(DLPNO)-IP/EA/STEOM-CCSD. UHF-CVS-IP/STEOM-CCSD
   Vijay G. Chilkuri      : MRCI spin determinant printing, contributions to CSF-ICE
   Pauline Colinet        : FMM embedding
   Dipayan Datta          : RHF DLPNO-CCSD density
   Achintya Kumar Dutta   : EOM-CC, STEOM-CC
   Nicolas Foglia         : Exact transition moments, OPA infrastructure, MCD improvements
   Dmitry Ganyushin       : Spin-Orbit,Spin-Spin,Magnetic field MRCI
   Miquel Garcia          : C-PCM and meta-GGA Hessian, CCSD/C-PCM, Gaussian charge scheme
   Tiago L. C. Gouveia    : GS-ROHF, GS-ROCIS
   Yang Guo               : DLPNO-NEVPT2, F12-NEVPT2, CIM, IAO-localization
   Andreas Hansen         : Spin unrestricted coupled pair/coupled cluster methods
   Ingolf Harden          : AUTO-CI MPn and infrastructure 
   Benjamin Helmich-Paris : MC-RPA, TRAH-(SCF,CASSCF), AVAS, COSX integrals, SCF dyn. polar.
   Lee Huntington         : MR-EOM, pCC
   Robert Izsak           : Overlap fitted RIJCOSX, COSX-SCS-MP3, EOM
   Riya Kayal             : Wick's Theorem for AUTO-CI, AUTO-CI UHF-CCSDT
   Emily Kempfer          : AUTO-CI, RHF CISDT and CCSDT
   Christian Kollmar      : KDIIS, OOCD, Brueckner-CCSD(T), CCSD density, CASPT2, CASPT2-K, improved NEVPT2
   Axel Koslowski         : Symmetry handling
   Simone Kossmann        : Meta GGA functionals, TD-DFT gradient, OOMP2, (MP2 Hessian; deprecated post 5.0)
   Lucas Lang             : DCDCAS
   Marvin Lechner         : AUTO-CI (C++ implementation), FIC-MRCC
   Spencer Leger          : CASSCF response
   Dagmar Lenk            : GEPOL surface, SMD, ORCA-2-JSON
   Dimitrios Liakos       : Extrapolation schemes; Compound Job, initial MDCI parallelization
   Dimitrios Manganas     : Further ROCIS development; embedding schemes. LFT, Crystal Embedding
   Dimitrios Pantazis     : SARC Basis sets
   Anastasios Papadopoulos: AUTO-CI, single reference methods and gradients
   Taras Petrenko         : pre 6.0 DFT Hessian and TD-DFT gradient, (ASA, deprecated), ECA, 1-Electron XAS/XES, NRVS
   Peter Pinski           : DLPNO-MP2, DLPNO-MP2 Gradient
   Christoph Reimann      : Effective Core Potentials
   Marius Retegan         : Local ZFS, SOC
   Christoph Riplinger    : Optimizer, TS searches, QM/MM, DLPNO-CCSD(T), (RO)-DLPNO pert. Triples
   Michael Roemelt        : Original ROCIS implementation
   Masaaki Saitow         : Open-shell DLPNO-CCSD energy and density
   Barbara Sandhoefer     : DKH picture change effects
   Kantharuban Sivalingam : CASSCF convergence/infrastructure, NEVPT2 and variants, FIC-MRCI
   Bernardo de Souza      : ESD, SOC TD-DFT
   Georgi Stoychev        : AutoAux, RI-MP2 NMR, DLPNO-MP2 response, X2C
   Van Anh Tran           : RI-MP2 g-tensors
   Willem Van den Heuvel  : Paramagnetic NMR
   Zikuan Wang            : NOTCH, Electric field optimization 
   Frank Wennmohs         : Technical directorship and infrastructure
   Hang Xu                : AUTO-CI-Response properties 


 We gratefully acknowledge several colleagues who have allowed us to
 interface, adapt or use parts of their codes:
   Stefan Grimme, W. Hujo, H. Kruse, P. Pracht,  : VdW corrections, initial TS optimization,
                  C. Bannwarth, S. Ehlert,         DFT functionals, gCP, sTDA/sTD-DF
                  L. Wittmann, M. Mueller
   Ed Valeev, F. Pavosevic, A. Kumar             : LibInt (2-el integral package), F12 methods
   Garnet Chan, S. Sharma, J. Yang, R. Olivares  : DMRG
   Ulf Ekstrom                                   : XCFun DFT Library
   Mihaly Kallay                                 : mrcc  (arbitrary order and MRCC methods)
   Frank Weinhold                                : gennbo (NPA and NBO analysis)
   Simon Mueller                                 : openCOSMO-RS
   Christopher J. Cramer and Donald G. Truhlar   : smd solvation model
   Lars Goerigk                                  : TD-DFT with DH, B97 family of functionals
   V. Asgeirsson, H. Jonsson                     : NEB implementation
   FAccTs GmbH                                   : IRC, NEB, NEB-TS, DLPNO-Multilevel, CI-OPT
                                                   MM, QMMM, 2- and 3-layer-ONIOM, Crystal-QMMM,
                                                   LR-CPCM, SF, NACMEs, symmetry and pop. for TD-DFT,
                                                   nearIR, NL-DFT gradient (VV10), updates on ESD,
                                                   ML-optimized integration grids, MBIS, APM,
                                                   GOAT, DOCKER, SOLVATOR, interface openCOSMO-RS
   S Lehtola, MJT Oliveira, MAL Marques          : LibXC Library
   Liviu Ungur et al                             : ANISO software


 Your calculation uses the libint2 library for the computation of 2-el integrals
 For citations please refer to: http://libint.valeyev.net

 Your ORCA version has been built with support for libXC version: 6.2.2
 For citations please refer to: https://libxc.gitlab.io

 This ORCA versions uses:
   CBLAS   interface :  Fast vector & matrix operations
   LAPACKE interface :  Fast linear algebra routines
   SCALAPACK package :  Parallel linear algebra routines
   Shared memory     :  Shared parallel matrices
   BLAS/LAPACK       :  OpenBLAS 0.3.27  USE64BITINT DYNAMIC_ARCH NO_AFFINITY Haswell SINGLE_THREADED
        Core in use  :  Haswell
   Copyright (c) 2011-2014, The OpenBLAS Project


NOTE: MaxCore=4096 MB was set to SCF,MP2,MDCI,CIPSI,MRCI and CIS
      => If you want to overwrite this, your respective input block should be placed after the MaxCore statement
Warning: RI is on but no J-basis has been assigned. Assigning Def2/J (nothing to worry about!)
================================================================================

----- Orbital basis set information -----
Your calculation utilizes the basis: EPR-II
   V. Barone, in Recent Advances in Density Functional Methods, Part 1 (ed. D. P. Chong), World Scientific, Singapore, 1995, p. 287.

The basis set includes element-specific modifications.

Your calculation utilizes the basis: CP(PPP) 

----- AuxJ basis set information -----
Your calculation utilizes the auxiliary basis: def2/J
   F. Weigend, Phys. Chem. Chem. Phys. 8, 1057 (2006).

================================================================================
                                        WARNINGS
                       Please study these warnings very carefully!
================================================================================


================================================================================
                                       INPUT FILE
================================================================================
NAME = system.inp
|  1> ! UKS PBE0 SmallPrint TightSCF
|  2> %basis basis "EPR-II"
|  3>  newGTO Cu "CP(PPP)" end
|  4> end
|  5> %maxcore 4096
|  6> 
|  7> %pal nprocs 16 end
|  8> 
|  9> %method
| 10> SpecialGridAtoms 29,7
| 11> SpecialGridIntAcc 9,8
| 12> end
| 13> * xyz 2 2
| 14>   Cu    4.93065084139682    1.78911174759255    4.253907
| 15>   O           4.66996383777713      4.37211059614049     10.16636459371095
| 16>   N           6.59293663404064      1.03556410439360      3.43270670831411
| 17>   N           4.70616025506375     -0.65790685334296      4.50931304941681
| 18>   N           4.00019492221944      1.30128069459395      2.55581333952882
| 19>   N           5.54759349038425      3.57965943022267      2.66120955481742
| 20>   N           5.79343608333526      2.28467366003121      6.04561403255358
| 21>   N           3.30463736696574      2.61685724880078      5.16105365593613
| 22>   N           2.06035445075444      4.79404219185336      9.29484571113731
| 23>   N           3.43484463137595      3.49625648280724     11.98843658380804
| 24>   C           7.02752316927779     -0.15696046385733      3.84838878228234
| 25>   C           6.11827484855785     -0.94425665178516      4.75516523093470
| 26>   H           6.36381670421555     -2.00648954748343      4.63186532048015
| 27>   H           6.34783488083062     -0.69162494986788      5.79238006454649
| 28>   C           3.79449190316945     -1.25208119363090      5.54866270425556
| 29>   C           2.35471796273225     -0.91323154906519      5.17721567856132
| 30>   H           2.22797078860070      0.16220035995099      5.05242481818137
| 31>   H           1.69038136655602     -1.23968206889095      5.97773320041556
| 32>   H           2.02024391658843     -1.41197511390497      4.26687705441211
| 33>   C           4.08216809139860     -0.62616002396420      6.90792673786132
| 34>   H           5.07659323199541     -0.86317665808757      7.28866878981234
| 35>   H           3.36907107931620     -1.01767200572795      7.63436698910665
| 36>   H           3.96418082562586      0.45573219630579      6.87435430210411
| 37>   C           3.95814620284488     -2.76784512705611      5.65451261408949
| 38>   H           3.80935945275034     -3.27536075074786      4.69905078786478
| 39>   H           3.21537250911905     -3.16773088166121      6.34615287826006
| 40>   H           4.93972001045033     -3.04736996476363      6.04127791642955
| 41>   C           4.32537006977449     -1.03988661376840      3.14930725560984
| 42>   H           3.70470292068172     -1.93724542780573      3.13310725982551
| 43>   H           5.22655160135309     -1.31213275281792      2.58822957360053
| 44>   C           3.66192531775290      0.03327879322505      2.32311274768060
| 45>   C           3.69262540662643      2.27435444003907      1.69483078610805
| 46>   C           2.90463913836217      2.01114842445519      0.58775761403004
| 47>   H           2.66349782008299      2.80394253371183     -0.10943598959504
| 48>   C           2.44764155048294      0.71806033560536      0.38697590359507
| 49>   H           1.81211928303177      0.48982268765712     -0.46040018096898
| 50>   C           2.84927807989921     -0.28908686342272      1.24806566418120
| 51>   H           2.55758542542049     -1.31792836421319      1.07670697943798
| 52>   C           4.26471818302443      3.64134308444247      1.96400219953949
| 53>   H           4.32737048432432      4.17073555721262      1.00499350126199
| 54>   H           3.56042747795460      4.20151359833418      2.58256692037402
| 55>   C           6.02289443075809      4.92312524462608      3.14412164152921
| 56>   C           6.16896581074707      5.92653973479478      2.00056724221335
| 57>   H           6.83758923309936      5.57225664103212      1.21315523258182
| 58>   H           6.59272016145704      6.85591068747413      2.38352128470132
| 59>   H           5.20763995038156      6.17545010809378      1.54776753174260
| 60>   C           5.04328876436852      5.47904946105555      4.16958144057256
| 61>   H           4.06589737974865      5.71531108539980      3.74681923161213
| 62>   H           5.44122667489944      6.41149564836943      4.57152586889042
| 63>   H           4.90999348007030      4.78811323865426      5.00026205431356
| 64>   C           7.36864476150325      4.73699841939059      3.83721828255837
| 65>   H           8.16755469368944      4.45819276944331      3.14903049371571
| 66>   H           7.30389809219078      3.98045043569735      4.61952815684539
| 67>   H           7.66704305777950      5.67714206937450      4.30162307348991
| 68>   C           6.55152821802019      2.89176808375628      1.85067900585710
| 69>   H           6.06665242855745      2.45854825316130      0.96822310085396
| 70>   H           7.29763926473971      3.57905637795604      1.44896932230511
| 71>   C           7.25743379444477      1.73573424614465      2.51343795288879
| 72>   C           8.50043593228950      1.31017349825192      2.07205675074375
| 73>   H           9.04697522477312      1.89551879304810      1.34288589448558
| 74>   C           9.00994077295493      0.11659727128160      2.55375810549327
| 75>   H           9.97926236724670     -0.23611453655724      2.22226170256158
| 76>   C           8.24947084673168     -0.64871268188150      3.42416886883074
| 77>   H           8.59211948040344     -1.61948394698295      3.76023863445695
| 78>   C           7.03389445572314      2.09381067892094      6.45739305442553
| 79>   H           7.71462038991527      1.62547040825768      5.75639739194847
| 80>   C           7.47222007668100      2.47768501518653      7.72521706951138
| 81>   H           8.49861613254773      2.29226217452028      8.01309505400612
| 82>   C           6.59102846716372      3.08890281636931      8.58380108275411
| 83>   H           6.89150027413291      3.40063707316302      9.57661898308012
| 84>   C           5.27259105662106      3.30971222314817      8.16235546829551
| 85>   C           4.91580345341675      2.88037650045557      6.87627711176315
| 86>   C           3.58334831671912      3.06093386102556      6.40278641620573
| 87>   C           2.08394424820029      2.77796720736531      4.68633313393742
| 88>   C           1.34201044503184      3.85727203696660      6.68870626324957
| 89>   C           2.63182806848658      3.68750391004874      7.22047419757869
| 90>   C           3.00045784848030      4.13167702227311      8.52551646334965
| 91>   C           2.36541932727996      5.05937059777028     10.50356286541784
| 92>   H           1.63263170920453      5.58306146491719     11.10908125302276
| 93>   C           3.63124219012684      4.64796643123697     11.19397236979335
| 94>   C           4.38705687833261      3.49425737598710     13.01706958389870
| 95>   C           4.77159686166064      2.44606790325817     13.83017701645959
| 96>   H           4.33795990286960      1.45821136717407     13.73676815763407
| 97>   C           5.75036605802307      2.70205534739065     14.78737462388654
| 98>   H           6.07153812218782      1.90020736287355     15.44121471861889
| 99>   C           6.32031119855545      3.95896693118641     14.91459721138233
|100>   H           7.08007343621682      4.13211935418302     15.66628612417465
|101>   C           5.91580326538969      5.00329327164638     14.08493683922222
|102>   H           6.35734971289043      5.98778736243525     14.19251596205698
|103>   C           4.94662952152286      4.76049630067980     13.13765417454114
|104>   C           4.25639314080838      5.69228103951230     12.17096223242513
|105>   C           3.15712305162387      6.44330875131093     12.93139363137599
|106>   H           2.63754452408727      7.16008200064764     12.29070383592206
|107>   H           3.61818176718809      7.00277925906485     13.74556958202561
|108>   H           2.42928056107583      5.76005834728150     13.37310418581639
|109>   C           5.17144624780288      6.68837211204594     11.47987400303191
|110>   H           6.02439351431977      6.20388458559784     11.00782396483128
|111>   H           5.55094691135687      7.39809321726617     12.21667350371623
|112>   H           4.62982927106226      7.26266211166972     10.72410919132783
|113>   C           2.91113288451840      2.27094788442941     11.45008144348863
|114>   H           2.50613576904383      1.66186764070558     12.25863698655243
|115>   H           3.67825950189452      1.68252324121914     10.92785282808794
|116>   H           2.09369842208590      2.48579660879661     10.76150295383855
|117>   C           4.28256635765146      3.94196073405411      8.98078509336066
|118>   H           0.58890507797232      4.34806208451544      7.29251077554742
|119>   H           1.88864863850758      2.39501763146911      3.69202433402649
|120>   C           1.07347883959421      3.40072733016234      5.42305980627048
|121>   H           0.08999399705657      3.51252987771694      4.98551989112835
|122> *
|123> 
|124> %eprnmr
|125>    GTensor 1
|126>    nuclei = all Cu { aiso, adip, aorb, fgrad }
|127>    nuclei = all N { aiso, adip, aorb, fgrad }
|128> end
|129> 
|130> 
|131>                          ****END OF INPUT****
================================================================================

                       ****************************
                       * Single Point Calculation *
                       ****************************

---------------------------------
CARTESIAN COORDINATES (ANGSTROEM)
---------------------------------
  Cu     4.930651    1.789112    4.253907
  O      4.669964    4.372111   10.166365
  N      6.592937    1.035564    3.432707
  N      4.706160   -0.657907    4.509313
  N      4.000195    1.301281    2.555813
  N      5.547593    3.579659    2.661210
  N      5.793436    2.284674    6.045614
  N      3.304637    2.616857    5.161054
  N      2.060354    4.794042    9.294846
  N      3.434845    3.496256   11.988437
  C      7.027523   -0.156960    3.848389
  C      6.118275   -0.944257    4.755165
  H      6.363817   -2.006490    4.631865
  H      6.347835   -0.691625    5.792380
  C      3.794492   -1.252081    5.548663
  C      2.354718   -0.913232    5.177216
  H      2.227971    0.162200    5.052425
  H      1.690381   -1.239682    5.977733
  H      2.020244   -1.411975    4.266877
  C      4.082168   -0.626160    6.907927
  H      5.076593   -0.863177    7.288669
  H      3.369071   -1.017672    7.634367
  H      3.964181    0.455732    6.874354
  C      3.958146   -2.767845    5.654513
  H      3.809359   -3.275361    4.699051
  H      3.215373   -3.167731    6.346153
  H      4.939720   -3.047370    6.041278
  C      4.325370   -1.039887    3.149307
  H      3.704703   -1.937245    3.133107
  H      5.226552   -1.312133    2.588230
  C      3.661925    0.033279    2.323113
  C      3.692625    2.274354    1.694831
  C      2.904639    2.011148    0.587758
  H      2.663498    2.803943   -0.109436
  C      2.447642    0.718060    0.386976
  H      1.812119    0.489823   -0.460400
  C      2.849278   -0.289087    1.248066
  H      2.557585   -1.317928    1.076707
  C      4.264718    3.641343    1.964002
  H      4.327370    4.170736    1.004994
  H      3.560427    4.201514    2.582567
  C      6.022894    4.923125    3.144122
  C      6.168966    5.926540    2.000567
  H      6.837589    5.572257    1.213155
  H      6.592720    6.855911    2.383521
  H      5.207640    6.175450    1.547768
  C      5.043289    5.479049    4.169581
  H      4.065897    5.715311    3.746819
  H      5.441227    6.411496    4.571526
  H      4.909993    4.788113    5.000262
  C      7.368645    4.736998    3.837218
  H      8.167555    4.458193    3.149030
  H      7.303898    3.980450    4.619528
  H      7.667043    5.677142    4.301623
  C      6.551528    2.891768    1.850679
  H      6.066652    2.458548    0.968223
  H      7.297639    3.579056    1.448969
  C      7.257434    1.735734    2.513438
  C      8.500436    1.310173    2.072057
  H      9.046975    1.895519    1.342886
  C      9.009941    0.116597    2.553758
  H      9.979262   -0.236115    2.222262
  C      8.249471   -0.648713    3.424169
  H      8.592119   -1.619484    3.760239
  C      7.033894    2.093811    6.457393
  H      7.714620    1.625470    5.756397
  C      7.472220    2.477685    7.725217
  H      8.498616    2.292262    8.013095
  C      6.591028    3.088903    8.583801
  H      6.891500    3.400637    9.576619
  C      5.272591    3.309712    8.162355
  C      4.915803    2.880377    6.876277
  C      3.583348    3.060934    6.402786
  C      2.083944    2.777967    4.686333
  C      1.342010    3.857272    6.688706
  C      2.631828    3.687504    7.220474
  C      3.000458    4.131677    8.525516
  C      2.365419    5.059371   10.503563
  H      1.632632    5.583061   11.109081
  C      3.631242    4.647966   11.193972
  C      4.387057    3.494257   13.017070
  C      4.771597    2.446068   13.830177
  H      4.337960    1.458211   13.736768
  C      5.750366    2.702055   14.787375
  H      6.071538    1.900207   15.441215
  C      6.320311    3.958967   14.914597
  H      7.080073    4.132119   15.666286
  C      5.915803    5.003293   14.084937
  H      6.357350    5.987787   14.192516
  C      4.946630    4.760496   13.137654
  C      4.256393    5.692281   12.170962
  C      3.157123    6.443309   12.931394
  H      2.637545    7.160082   12.290704
  H      3.618182    7.002779   13.745570
  H      2.429281    5.760058   13.373104
  C      5.171446    6.688372   11.479874
  H      6.024394    6.203885   11.007824
  H      5.550947    7.398093   12.216674
  H      4.629829    7.262662   10.724109
  C      2.911133    2.270948   11.450081
  H      2.506136    1.661868   12.258637
  H      3.678260    1.682523   10.927853
  H      2.093698    2.485797   10.761503
  C      4.282566    3.941961    8.980785
  H      0.588905    4.348062    7.292511
  H      1.888649    2.395018    3.692024
  C      1.073479    3.400727    5.423060
  H      0.089994    3.512530    4.985520

----------------------------
CARTESIAN COORDINATES (A.U.)
----------------------------
  NO LB      ZA    FRAG     MASS         X           Y           Z
   0 Cu   29.0000    0    63.550    9.317580    3.380931    8.038719
   1 O     8.0000    0    15.999    8.824953    8.262092   19.211645
   2 N     7.0000    0    14.007   12.458845    1.956933    6.486876
   3 N     7.0000    0    14.007    8.893354   -1.243264    8.521367
   4 N     7.0000    0    14.007    7.559273    2.459064    4.829787
   5 N     7.0000    0    14.007   10.483432    6.764576    5.028957
   6 N     7.0000    0    14.007   10.948008    4.317408   11.424555
   7 N     7.0000    0    14.007    6.244860    4.945144    9.752978
   8 N     7.0000    0    14.007    3.893506    9.059427   17.564713
   9 N     7.0000    0    14.007    6.490916    6.606967   22.654862
  10 C     6.0000    0    12.011   13.280094   -0.296612    7.272401
  11 C     6.0000    0    12.011   11.561864   -1.784386    8.985960
  12 H     1.0000    0     1.008   12.025871   -3.791716    8.752957
  13 H     1.0000    0     1.008   11.995669   -1.306982   10.946012
  14 C     6.0000    0    12.011    7.170551   -2.366091   10.485453
  15 C     6.0000    0    12.011    4.449772   -1.725758    9.783520
  16 H     1.0000    0     1.008    4.210255    0.306514    9.547699
  17 H     1.0000    0     1.008    3.194358   -2.342660   11.296279
  18 H     1.0000    0     1.008    3.817708   -2.668246    8.063229
  19 C     6.0000    0    12.011    7.714180   -1.183271   13.054090
  20 H     1.0000    0     1.008    9.593371   -1.631167   13.773588
  21 H     1.0000    0     1.008    6.366622   -1.923121   14.426863
  22 H     1.0000    0     1.008    7.491216    0.861209   12.990647
  23 C     6.0000    0    12.011    7.479812   -5.230469   10.685480
  24 H     1.0000    0     1.008    7.198646   -6.189535    8.879919
  25 H     1.0000    0     1.008    6.076173   -5.986144   11.992491
  26 H     1.0000    0     1.008    9.334718   -5.758695   11.416361
  27 C     6.0000    0    12.011    8.173765   -1.965101    5.951328
  28 H     1.0000    0     1.008    7.000874   -3.660863    5.920715
  29 H     1.0000    0     1.008    9.876751   -2.479572    4.891045
  30 C     6.0000    0    12.011    6.920036    0.062888    4.390047
  31 C     6.0000    0    12.011    6.978051    4.297907    3.202766
  32 C     6.0000    0    12.011    5.488972    3.800520    1.110701
  33 H     1.0000    0     1.008    5.033281    5.298683   -0.206804
  34 C     6.0000    0    12.011    4.625372    1.356937    0.731278
  35 H     1.0000    0     1.008    3.424409    0.925631   -0.870030
  36 C     6.0000    0    12.011    5.384355   -0.546295    2.358502
  37 H     1.0000    0     1.008    4.833136   -2.490524    2.034681
  38 C     6.0000    0    12.011    8.059149    6.881141    3.711426
  39 H     1.0000    0     1.008    8.177545    7.881548    1.899162
  40 H     1.0000    0     1.008    6.728233    7.939710    4.880344
  41 C     6.0000    0    12.011   11.381621    9.303358    5.941529
  42 C     6.0000    0    12.011   11.657656   11.199537    3.780524
  43 H     1.0000    0     1.008   12.921171   10.530039    2.292531
  44 H     1.0000    0     1.008   12.458436   12.955794    4.504202
  45 H     1.0000    0     1.008    9.841013   11.669909    2.924857
  46 C     6.0000    0    12.011    9.530435   10.353903    7.879367
  47 H     1.0000    0     1.008    7.683433   10.800373    7.080462
  48 H     1.0000    0     1.008   10.282428   12.115971    8.638932
  49 H     1.0000    0     1.008    9.278543    9.048223    9.449126
  50 C     6.0000    0    12.011   13.924721    8.951630    7.251292
  51 H     1.0000    0     1.008   15.434442    8.424763    5.950805
  52 H     1.0000    0     1.008   13.802367    7.521961    8.729643
  53 H     1.0000    0     1.008   14.488612   10.728244    8.128890
  54 C     6.0000    0    12.011   12.380594    5.464650    3.497276
  55 H     1.0000    0     1.008   11.464312    4.645983    1.829676
  56 H     1.0000    0     1.008   13.790540    6.763436    2.738155
  57 C     6.0000    0    12.011   13.714562    3.280062    4.749709
  58 C     6.0000    0    12.011   16.063496    2.475869    3.915620
  59 H     1.0000    0     1.008   17.096306    3.582011    2.537687
  60 C     6.0000    0    12.011   17.026321    0.220337    4.825903
  61 H     1.0000    0     1.008   18.858073   -0.446192    4.199466
  62 C     6.0000    0    12.011   15.589241   -1.225889    6.470741
  63 H     1.0000    0     1.008   16.236753   -3.060381    7.105821
  64 C     6.0000    0    12.011   13.292134    3.956729   12.202704
  65 H     1.0000    0     1.008   14.578520    3.071694   10.878015
  66 C     6.0000    0    12.011   14.120450    4.682146   14.598545
  67 H     1.0000    0     1.008   16.060057    4.331748   15.142555
  68 C     6.0000    0    12.011   12.455239    5.837180   16.221033
  69 H     1.0000    0     1.008   13.023048    6.426273   18.097187
  70 C     6.0000    0    12.011    9.963753    6.254450   15.424616
  71 C     6.0000    0    12.011    9.289522    5.443123   12.994281
  72 C     6.0000    0    12.011    6.771547    5.784327   12.099513
  73 C     6.0000    0    12.011    3.938084    5.249597    8.855886
  74 C     6.0000    0    12.011    2.536032    7.289188   12.639823
  75 C     6.0000    0    12.011    4.973434    6.968373   13.644719
  76 C     6.0000    0    12.011    5.670044    7.807738   16.110891
  77 C     6.0000    0    12.011    4.469995    9.560825   19.848857
  78 H     1.0000    0     1.008    3.085227   10.550457   20.993121
  79 C     6.0000    0    12.011    6.862053    8.783384   21.153542
  80 C     6.0000    0    12.011    8.290336    6.603189   24.598697
  81 C     6.0000    0    12.011    9.017011    4.622398   26.135247
  82 H     1.0000    0     1.008    8.197556    2.755620   25.958730
  83 C     6.0000    0    12.011   10.866617    5.106145   27.944088
  84 H     1.0000    0     1.008   11.473544    3.590872   29.179667
  85 C     6.0000    0    12.011   11.943657    7.481363   28.184504
  86 H     1.0000    0     1.008   13.379400    7.808574   29.604990
  87 C     6.0000    0    12.011   11.179248    9.454854   26.616673
  88 H     1.0000    0     1.008   12.013650   11.315278   26.819968
  89 C     6.0000    0    12.011    9.347775    8.996034   24.826568
  90 C     6.0000    0    12.011    8.043417   10.756852   22.999785
  91 C     6.0000    0    12.011    5.966098   12.176089   24.436792
  92 H     1.0000    0     1.008    4.984237   13.530594   23.226064
  93 H     1.0000    0     1.008    6.837373   13.233335   25.975362
  94 H     1.0000    0     1.008    4.590675   10.884933   25.271504
  95 C     6.0000    0    12.011    9.772617   12.639192   21.693818
  96 H     1.0000    0     1.008   11.384454   11.723643   20.801773
  97 H     1.0000    0     1.008   10.489769   13.980370   23.086167
  98 H     1.0000    0     1.008    8.749109   13.724442   20.265629
  99 C     6.0000    0    12.011    5.501244    4.291470   21.637518
 100 H     1.0000    0     1.008    4.735910    3.140475   23.165467
 101 H     1.0000    0     1.008    6.950903    3.179508   20.650649
 102 H     1.0000    0     1.008    3.956517    4.697475   20.336293
 103 C     6.0000    0    12.011    8.092878    7.449226   16.971224
 104 H     1.0000    0     1.008    1.112869    8.216647   13.780848
 105 H     1.0000    0     1.008    3.569029    4.525927    6.976915
 106 C     6.0000    0    12.011    2.028581    6.426443   10.248098
 107 H     1.0000    0     1.008    0.170064    6.637720    9.421267

--------------------------------
INTERNAL COORDINATES (ANGSTROEM)
--------------------------------
 Cu     0   0   0     0.000000000000     0.00000000     0.00000000
 O      1   0   0     6.457321082530     0.00000000     0.00000000
 N      1   2   0     2.001349051530   124.04500477     0.00000000
 N      1   2   3     2.470531988612   107.33017216    83.59206597
 N      1   2   4     1.996809814062   149.04372500    96.90596820
 N      1   2   4     2.474543268525   108.05597610   188.24166002
 N      1   2   4     2.049437501674    28.33301637   279.50536994
 N      1   2   7     2.037645084203    52.96240317   178.36944951
 N      2   1   3     2.783456949008    79.15213708   176.99210020
 N      2   1   3     2.369089744809   125.26569156   244.97663403
 C      3   1   2     1.335579233557   118.60362707    75.45497088
 C      4   1   2     1.461679557011    97.10237383   274.44830092
 H     12   4   1     1.097192961836   112.76566259   196.10170198
 H     12   4   1     1.091941022352   108.51460469    78.39277206
 C      4   1   2     1.504802324399   121.16799397    36.91198059
 C     15   4   1     1.525038023815   108.42158585    66.55302850
 H     16  15   4     1.090041923925   110.90829621   305.20615371
 H     16  15   4     1.090294161091   109.26230742   186.29489361
 H     16  15   4     1.090566110619   113.03234535    67.52368388
 C     15   4   1     1.523854852985   109.84831282   309.09265982
 H     20  15   4     1.090881641254   113.21425822   294.55610849
 H     20  15   4     1.090644038692   108.85927086   176.20728431
 H     20  15   4     1.088824540322   111.11083824    57.59193865
 C     15   4   1     1.528243185847   111.99893627   187.83082582
 H     24  15   4     1.092070009966   112.69000524   304.35577121
 H     24  15   4     1.090865542516   109.54712460   185.42016867
 H     24  15   4     1.091425065576   112.01636180    66.74354134
 C      4   1   2     1.463053471947   100.72816649   161.53067244
 H     28   4   1     1.091211707670   112.11962063   209.19483193
 H     28   4   1     1.095926219385   109.07124702    93.55512638
 C      5   1   2     1.332818334443   119.94459703   256.75630435
 C      5   1   2     1.335201287556   118.53276779    74.59811147
 C     32   5   1     1.384128163844   120.55168150   188.05387028
 H     33  32   5     1.082936081211   120.16481775   180.33415533
 C     33  32   5     1.386086900630   118.74826065   359.66452630
 H     35  33  32     1.083525359675   120.21039375   178.71448757
 C     35  33  32     1.384605704906   119.52884156   356.31855105
 H     37  35  33     1.083034273355   120.96197451   183.91880008
 C      6   1   2     1.461393863298    96.81986935   248.38827596
 H     39   6   1     1.097214374886   112.78221114   196.01374694
 H     39   6   1     1.091988422898   108.51665488    78.23873148
 C      6   1   2     1.504664567897   121.21511992    10.72899187
 C     42   6   1     1.528363226241   112.10138579   187.57333274
 H     43  42   6     1.092058361241   112.64499060   303.54621680
 H     43  42   6     1.090849172016   109.49950763   184.66450196
 H     43  42   6     1.091389646985   112.08450938    65.99860262
 C     42   6   1     1.523235633607   109.80242576   308.88488562
 H     47  42   6     1.090798496145   113.22718669   293.70871896
 H     47  42   6     1.090582319832   108.99586746   175.33103125
 H     47  42   6     1.088664676697   111.14882218    56.62794477
 C     42   6   1     1.525145927962   108.39800756    66.43912903
 H     51  42   6     1.090684236111   113.00311143    68.31764474
 H     51  42   6     1.090213613116   111.00097772   306.03822996
 H     51  42   6     1.090221736926   109.25981283   187.04237282
 C      6   1   2     1.462203546944   100.80965078   135.43250599
 H     55   6   1     1.096135200193   109.17666459    93.72622389
 H     55   6   1     1.091062584475   112.16411194   209.40032365
 C      3   1   2     1.332985276845   119.95021472   256.96306424
 C     58   3   1     1.385991930150   120.35878778   171.19948144
 H     59  58   3     1.083062532814   120.06762618   181.49844999
 C     59  58   3     1.384288838147   118.94807157     3.01425143
 H     61  59  58     1.083457353894   120.23279714   179.96059226
 C     11   3   1     1.383813175734   120.61158548   187.44428811
 H     63  11   3     1.082934819217   120.18649840   180.41486669
 C      7   1   2     1.320881377732   129.26854444   180.64796404
 H     65   7   1     1.083570637023   116.79188157     1.23070696
 C     65   7   1     1.395301612290   122.58343352   180.74425174
 H     67  65   7     1.082009347139   119.51172674   179.65920881
 C     67  65   7     1.373773038374   119.26071172   359.45391639
 H     69  67  65     1.083120001131   121.53271839   179.90977928
 C     69  67  65     1.401659875143   119.04699050     0.05254439
 C      7   1   2     1.347257235404   111.82040774     0.96053977
 C      8   1   2     1.347881329704   112.26957763   359.68444458
 C      8   1   2     1.319624068800   128.87356960   178.46873894
 C     74   8   1     2.392668558843    92.34140010   181.48410830
 C     73   8   1     1.402353064294   122.96082956   179.04703570
 C      9   2   1     1.383614652926    57.62295141     2.24378835
 C      9   2   1     1.274543408805    60.67372834   172.93477783
 H     78   9   2     1.085302877203   117.90147788   170.83995237
 C     10   2   1     1.412862765362    36.26317059   235.84561920
 C     10   2   1     1.401712527075   102.16707907   130.86765530
 C     81  10   2     1.381200878368   128.47848402   233.32746715
 H     82  81  10     1.082878923435   122.00779379     0.00000000
 C     82  81  10     1.392747633624   117.43647838   179.93468464
 H     84  82  81     1.083336768763   119.15018666   179.89116346
 C     84  82  81     1.385947249886   121.25001961   359.72343638
 H     86  84  82     1.082708012800   119.82396561   180.05016185
 C     86  84  82     1.393764867725   120.36662707     0.39158184
 H     88  86  84     1.084327048343   120.20251906   179.46884733
 C     88  86  84     1.376805201078   118.79810486   359.76229313
 C     90  88  86     1.509682871246   130.81072943   175.80080053
 C     91  90  88     1.533197073235   108.21318915   280.19071030
 H     92  91  90     1.092798769784   111.80203383   178.24282224
 H     92  91  90     1.090167357272   108.57659928    59.69077434
 H     92  91  90     1.091647387922   111.84734054   301.21060423
 C     91  90  88     1.518921510219   114.87620214    43.07102080
 H     96  91  90     1.088613081544   112.17605351    52.27557006
 H     96  91  90     1.091145409669   109.19871284   292.52964970
 H     96  91  90     1.092857906487   111.14272892   174.33536941
 C     10   2   1     1.437178281273   102.53760686     4.41412217
 H    100  10   2     1.090304302962   109.50234378   167.42250350
 H    100  10   2     1.098840085985   112.34489908    47.14781739
 H    100  10   2     1.090183200725   109.98719270   285.29077354
 C      2   1   3     1.319357594859    19.72188159   182.18960738
 H     75  74   8     1.082876933792   152.46619744   179.26228471
 H     74   8   1     1.083254698778   116.98845743     2.29002688
 C     75  74   8     1.372007014010    30.52424799   179.60222771
 H    107  75  74     1.082212281617   121.09434857   179.84187729

---------------------------
INTERNAL COORDINATES (A.U.)
---------------------------
 Cu     0   0   0     0.000000000000     0.00000000     0.00000000
 O      1   0   0    12.202568404778     0.00000000     0.00000000
 N      1   2   0     3.782001605775   124.04500477     0.00000000
 N      1   2   3     4.668628863569   107.33017216    83.59206597
 N      1   2   4     3.773423690103   149.04372500    96.90596820
 N      1   2   4     4.676209084051   108.05597610   188.24166002
 N      1   2   4     3.872875606752    28.33301637   279.50536994
 N      1   2   7     3.850591167275    52.96240317   178.36944951
 N      2   1   3     5.259971339185    79.15213708   176.99210020
 N      2   1   3     4.476930804371   125.26569156   244.97663403
 C      3   1   2     2.523878981576   118.60362707    75.45497088
 C      4   1   2     2.762174058302    97.10237383   274.44830092
 H     12   4   1     2.073394213935   112.76566259   196.10170198
 H     12   4   1     2.063469486639   108.51460469    78.39277206
 C      4   1   2     2.843664278802   121.16799397    36.91198059
 C     15   4   1     2.881904208827   108.42158585    66.55302850
 H     16  15   4     2.059880710712   110.90829621   305.20615371
 H     16  15   4     2.060357369875   109.26230742   186.29489361
 H     16  15   4     2.060871280006   113.03234535    67.52368388
 C     15   4   1     2.879668339988   109.84831282   309.09265982
 H     20  15   4     2.061467546493   113.21425822   294.55610849
 H     20  15   4     2.061018542722   108.85927086   176.20728431
 H     20  15   4     2.057580189102   111.11083824    57.59193865
 C     15   4   1     2.887961087282   111.99893627   187.83082582
 H     24  15   4     2.063713237905   112.69000524   304.35577121
 H     24  15   4     2.061437124287   109.54712460   185.42016867
 H     24  15   4     2.062494469635   112.01636180    66.74354134
 C      4   1   2     2.764770381262   100.72816649   161.53067244
 H     28   4   1     2.062091281625   112.11962063   209.19483193
 H     28   4   1     2.071000417621   109.07124702    93.55512638
 C      5   1   2     2.518661638366   119.94459703   256.75630435
 C      5   1   2     2.523164767140   118.53276779    74.59811147
 C     32   5   1     2.615623163913   120.55168150   188.05387028
 H     33  32   5     2.046452614031   120.16481775   180.33415533
 C     33  32   5     2.619324640006   118.74826065   359.66452630
 H     35  33  32     2.047566188944   120.21039375   178.71448757
 C     35  33  32     2.616525585737   119.52884156   356.31855105
 H     37  35  33     2.046638170292   120.96197451   183.91880008
 C      6   1   2     2.761634175426    96.81986935   248.38827596
 H     39   6   1     2.073434678736   112.78221114   196.01374694
 H     39   6   1     2.063559060689   108.51665488    78.23873148
 C      6   1   2     2.843403956739   121.21511992    10.72899187
 C     42   6   1     2.888187930753   112.10138579   187.57333274
 H     43  42   6     2.063691225004   112.64499060   303.54621680
 H     43  42   6     2.061406188525   109.49950763   184.66450196
 H     43  42   6     2.062427538198   112.08450938    65.99860262
 C     42   6   1     2.878498184947   109.80242576   308.88488562
 H     47  42   6     2.061310425007   113.22718669   293.70871896
 H     47  42   6     2.060901910979   108.99586746   175.33103125
 H     47  42   6     2.057278090631   111.14882218    56.62794477
 C     42   6   1     2.882108118113   108.39800756    66.43912903
 H     51  42   6     2.061094504834   113.00311143    68.31764474
 H     51  42   6     2.060205156263   111.00097772   306.03822996
 H     51  42   6     2.060220508038   109.25981283   187.04237282
 C      6   1   2     2.763164255772   100.80965078   135.43250599
 H     55   6   1     2.071395334116   109.17666459    93.72622389
 H     55   6   1     2.061809479625   112.16411194   209.40032365
 C      3   1   2     2.518977113787   119.95021472   256.96306424
 C     58   3   1     2.619145171808   120.35878778   171.19948144
 H     59  58   3     2.046691572929   120.06762618   181.49844999
 C     59  58   3     2.615926794341   118.94807157     3.01425143
 H     61  59  58     2.047437676642   120.23279714   179.96059226
 C     11   3   1     2.615027922649   120.61158548   187.44428811
 H     63  11   3     2.046450229207   120.18649840   180.41486669
 C      7   1   2     2.496104059310   129.26854444   180.64796404
 H     65   7   1     2.047651750732   116.79188157     1.23070696
 C     65   7   1     2.636737921447   122.58343352   180.74425174
 H     67  65   7     2.044701340436   119.51172674   179.65920881
 C     67  65   7     2.596054812691   119.26071172   359.45391639
 H     69  67  65     2.046800172310   121.53271839   179.90977928
 C     69  67  65     2.648753296927   119.04699050     0.05254439
 C      7   1   2     2.545947206858   111.82040774     0.96053977
 C      8   1   2     2.547126574166   112.26957763   359.68444458
 C      8   1   2     2.493728089763   128.87356960   178.46873894
 C     74   8   1     4.521488305457    92.34140010   181.48410830
 C     73   8   1     2.650063234582   122.96082956   179.04703570
 C      9   2   1     2.614652768910    57.62295141     2.24378835
 C      9   2   1     2.408537988436    60.67372834   172.93477783
 H     78   9   2     2.050925210271   117.90147788   170.83995237
 C     10   2   1     2.669923691348    36.26317059   235.84561920
 C     10   2   1     2.648852794658   102.16707907   130.86765530
 C     81  10   2     2.610091396046   128.47848402   233.32746715
 H     82  81  10     2.046344601488   122.00779379     0.00000000
 C     82  81  10     2.631911601216   117.43647838   179.93468464
 H     84  82  81     2.047209803769   119.15018666   179.89116346
 C     84  82  81     2.619060738345   121.25001961   359.72343638
 H     86  84  82     2.046021627194   119.82396561   180.05016185
 C     86  84  82     2.633833895082   120.36662707     0.39158184
 H     88  86  84     2.049081160972   120.20251906   179.46884733
 C     88  86  84     2.601784769797   118.79810486   359.76229313
 C     90  88  86     2.852887175728   130.81072943   175.80080053
 C     91  90  88     2.897322577743   108.21318915   280.19071030
 H     92  91  90     2.065090394377   111.80203383   178.24282224
 H     92  91  90     2.060117745384   108.57659928    59.69077434
 H     92  91  90     2.062914597984   111.84734054   301.21060423
 C     91  90  88     2.870345673237   114.87620214    43.07102080
 H     96  91  90     2.057180589921   112.17605351    52.27557006
 H     96  91  90     2.061965996560   109.19871284   292.52964970
 H     96  91  90     2.065202146551   111.14272892   174.33536941
 C     10   2   1     2.715873357226   102.53760686     4.41412217
 H    100  10   2     2.060376535233   109.50234378   167.42250350
 H    100  10   2     2.076506827486   112.34489908    47.14781739
 H    100  10   2     2.060147685172   109.98719270   285.29077354
 C      2   1   3     2.493224526992    19.72188159   182.18960738
 H     75  74   8     2.046340841607   152.46619744   179.26228471
 H     74   8   1     2.047054713974   116.98845743     2.29002688
 C     75  74   8     2.592717510299    30.52424799   179.60222771
 H    107  75  74     2.045084831023   121.09434857   179.84187729

---------------------
BASIS SET INFORMATION
---------------------
There are 5 groups of distinct atoms

 Group   1 Type Cu  : 17s11p5d1f contracted to 17s7p3d1f pattern {11111111111111111/3311111/311/1}
 Group   2 Type O   : 10s5p1d contracted to 6s2p1d pattern {511111/41/1}
 Group   3 Type N   : 10s5p1d contracted to 6s2p1d pattern {511111/41/1}
 Group   4 Type C   : 10s5p1d contracted to 6s2p1d pattern {511111/41/1}
 Group   5 Type H   : 6s1p contracted to 4s1p pattern {3111/1}

Atom   0Cu   basis set group =>   1
Atom   1O    basis set group =>   2
Atom   2N    basis set group =>   3
Atom   3N    basis set group =>   3
Atom   4N    basis set group =>   3
Atom   5N    basis set group =>   3
Atom   6N    basis set group =>   3
Atom   7N    basis set group =>   3
Atom   8N    basis set group =>   3
Atom   9N    basis set group =>   3
Atom  10C    basis set group =>   4
Atom  11C    basis set group =>   4
Atom  12H    basis set group =>   5
Atom  13H    basis set group =>   5
Atom  14C    basis set group =>   4
Atom  15C    basis set group =>   4
Atom  16H    basis set group =>   5
Atom  17H    basis set group =>   5
Atom  18H    basis set group =>   5
Atom  19C    basis set group =>   4
Atom  20H    basis set group =>   5
Atom  21H    basis set group =>   5
Atom  22H    basis set group =>   5
Atom  23C    basis set group =>   4
Atom  24H    basis set group =>   5
Atom  25H    basis set group =>   5
Atom  26H    basis set group =>   5
Atom  27C    basis set group =>   4
Atom  28H    basis set group =>   5
Atom  29H    basis set group =>   5
Atom  30C    basis set group =>   4
Atom  31C    basis set group =>   4
Atom  32C    basis set group =>   4
Atom  33H    basis set group =>   5
Atom  34C    basis set group =>   4
Atom  35H    basis set group =>   5
Atom  36C    basis set group =>   4
Atom  37H    basis set group =>   5
Atom  38C    basis set group =>   4
Atom  39H    basis set group =>   5
Atom  40H    basis set group =>   5
Atom  41C    basis set group =>   4
Atom  42C    basis set group =>   4
Atom  43H    basis set group =>   5
Atom  44H    basis set group =>   5
Atom  45H    basis set group =>   5
Atom  46C    basis set group =>   4
Atom  47H    basis set group =>   5
Atom  48H    basis set group =>   5
Atom  49H    basis set group =>   5
Atom  50C    basis set group =>   4
Atom  51H    basis set group =>   5
Atom  52H    basis set group =>   5
Atom  53H    basis set group =>   5
Atom  54C    basis set group =>   4
Atom  55H    basis set group =>   5
Atom  56H    basis set group =>   5
Atom  57C    basis set group =>   4
Atom  58C    basis set group =>   4
Atom  59H    basis set group =>   5
Atom  60C    basis set group =>   4
Atom  61H    basis set group =>   5
Atom  62C    basis set group =>   4
Atom  63H    basis set group =>   5
Atom  64C    basis set group =>   4
Atom  65H    basis set group =>   5
Atom  66C    basis set group =>   4
Atom  67H    basis set group =>   5
Atom  68C    basis set group =>   4
Atom  69H    basis set group =>   5
Atom  70C    basis set group =>   4
Atom  71C    basis set group =>   4
Atom  72C    basis set group =>   4
Atom  73C    basis set group =>   4
Atom  74C    basis set group =>   4
Atom  75C    basis set group =>   4
Atom  76C    basis set group =>   4
Atom  77C    basis set group =>   4
Atom  78H    basis set group =>   5
Atom  79C    basis set group =>   4
Atom  80C    basis set group =>   4
Atom  81C    basis set group =>   4
Atom  82H    basis set group =>   5
Atom  83C    basis set group =>   4
Atom  84H    basis set group =>   5
Atom  85C    basis set group =>   4
Atom  86H    basis set group =>   5
Atom  87C    basis set group =>   4
Atom  88H    basis set group =>   5
Atom  89C    basis set group =>   4
Atom  90C    basis set group =>   4
Atom  91C    basis set group =>   4
Atom  92H    basis set group =>   5
Atom  93H    basis set group =>   5
Atom  94H    basis set group =>   5
Atom  95C    basis set group =>   4
Atom  96H    basis set group =>   5
Atom  97H    basis set group =>   5
Atom  98H    basis set group =>   5
Atom  99C    basis set group =>   4
Atom 100H    basis set group =>   5
Atom 101H    basis set group =>   5
Atom 102H    basis set group =>   5
Atom 103C    basis set group =>   4
Atom 104H    basis set group =>   5
Atom 105H    basis set group =>   5
Atom 106C    basis set group =>   4
Atom 107H    basis set group =>   5
---------------------------------
AUXILIARY/J BASIS SET INFORMATION
---------------------------------
There are 5 groups of distinct atoms

 Group   1 Type Cu  : 19s5p5d3f3g contracted to 8s5p4d3f3g pattern {121111111/11111/2111/111/111}
 Group   2 Type O   : 12s5p4d2f1g contracted to 6s4p3d1f1g pattern {711111/2111/211/2/1}
 Group   3 Type N   : 12s5p4d2f1g contracted to 6s4p3d1f1g pattern {711111/2111/211/2/1}
 Group   4 Type C   : 12s5p4d2f1g contracted to 6s4p3d1f1g pattern {711111/2111/211/2/1}
 Group   5 Type H   : 5s2p1d contracted to 3s1p1d pattern {311/2/1}

Atom   0Cu   basis set group =>   1
Atom   1O    basis set group =>   2
Atom   2N    basis set group =>   3
Atom   3N    basis set group =>   3
Atom   4N    basis set group =>   3
Atom   5N    basis set group =>   3
Atom   6N    basis set group =>   3
Atom   7N    basis set group =>   3
Atom   8N    basis set group =>   3
Atom   9N    basis set group =>   3
Atom  10C    basis set group =>   4
Atom  11C    basis set group =>   4
Atom  12H    basis set group =>   5
Atom  13H    basis set group =>   5
Atom  14C    basis set group =>   4
Atom  15C    basis set group =>   4
Atom  16H    basis set group =>   5
Atom  17H    basis set group =>   5
Atom  18H    basis set group =>   5
Atom  19C    basis set group =>   4
Atom  20H    basis set group =>   5
Atom  21H    basis set group =>   5
Atom  22H    basis set group =>   5
Atom  23C    basis set group =>   4
Atom  24H    basis set group =>   5
Atom  25H    basis set group =>   5
Atom  26H    basis set group =>   5
Atom  27C    basis set group =>   4
Atom  28H    basis set group =>   5
Atom  29H    basis set group =>   5
Atom  30C    basis set group =>   4
Atom  31C    basis set group =>   4
Atom  32C    basis set group =>   4
Atom  33H    basis set group =>   5
Atom  34C    basis set group =>   4
Atom  35H    basis set group =>   5
Atom  36C    basis set group =>   4
Atom  37H    basis set group =>   5
Atom  38C    basis set group =>   4
Atom  39H    basis set group =>   5
Atom  40H    basis set group =>   5
Atom  41C    basis set group =>   4
Atom  42C    basis set group =>   4
Atom  43H    basis set group =>   5
Atom  44H    basis set group =>   5
Atom  45H    basis set group =>   5
Atom  46C    basis set group =>   4
Atom  47H    basis set group =>   5
Atom  48H    basis set group =>   5
Atom  49H    basis set group =>   5
Atom  50C    basis set group =>   4
Atom  51H    basis set group =>   5
Atom  52H    basis set group =>   5
Atom  53H    basis set group =>   5
Atom  54C    basis set group =>   4
Atom  55H    basis set group =>   5
Atom  56H    basis set group =>   5
Atom  57C    basis set group =>   4
Atom  58C    basis set group =>   4
Atom  59H    basis set group =>   5
Atom  60C    basis set group =>   4
Atom  61H    basis set group =>   5
Atom  62C    basis set group =>   4
Atom  63H    basis set group =>   5
Atom  64C    basis set group =>   4
Atom  65H    basis set group =>   5
Atom  66C    basis set group =>   4
Atom  67H    basis set group =>   5
Atom  68C    basis set group =>   4
Atom  69H    basis set group =>   5
Atom  70C    basis set group =>   4
Atom  71C    basis set group =>   4
Atom  72C    basis set group =>   4
Atom  73C    basis set group =>   4
Atom  74C    basis set group =>   4
Atom  75C    basis set group =>   4
Atom  76C    basis set group =>   4
Atom  77C    basis set group =>   4
Atom  78H    basis set group =>   5
Atom  79C    basis set group =>   4
Atom  80C    basis set group =>   4
Atom  81C    basis set group =>   4
Atom  82H    basis set group =>   5
Atom  83C    basis set group =>   4
Atom  84H    basis set group =>   5
Atom  85C    basis set group =>   4
Atom  86H    basis set group =>   5
Atom  87C    basis set group =>   4
Atom  88H    basis set group =>   5
Atom  89C    basis set group =>   4
Atom  90C    basis set group =>   4
Atom  91C    basis set group =>   4
Atom  92H    basis set group =>   5
Atom  93H    basis set group =>   5
Atom  94H    basis set group =>   5
Atom  95C    basis set group =>   4
Atom  96H    basis set group =>   5
Atom  97H    basis set group =>   5
Atom  98H    basis set group =>   5
Atom  99C    basis set group =>   4
Atom 100H    basis set group =>   5
Atom 101H    basis set group =>   5
Atom 102H    basis set group =>   5
Atom 103C    basis set group =>   4
Atom 104H    basis set group =>   5
Atom 105H    basis set group =>   5
Atom 106C    basis set group =>   4
Atom 107H    basis set group =>   5


           ************************************************************
           *        Program running with 16 parallel MPI-processes    *
           *              working on a common directory               *
           ************************************************************
------------------------------------------------------------------------------
                             ORCA STARTUP CALCULATIONS
                           -- RI-GTO INTEGRALS CHOSEN --
------------------------------------------------------------------------------
------------------------------------------------------------------------------
                   ___                                                        
                  /   \      - P O W E R E D   B Y -                         
                 /     \                                                     
                 |  |  |   _    _      __       _____    __    __             
                 |  |  |  | |  | |    /  \     |  _  \  |  |  /  |          
                  \  \/   | |  | |   /    \    | | | |  |  | /  /          
                 / \  \   | |__| |  /  /\  \   | |_| |  |  |/  /          
                |  |  |   |  __  | /  /__\  \  |    /   |      \           
                |  |  |   | |  | | |   __   |  |    \   |  |\   \          
                \     /   | |  | | |  |  |  |  | |\  \  |  | \   \       
                 \___/    |_|  |_| |__|  |__|  |_| \__\ |__|  \__/        
                                                                              
                      - O R C A' S   B I G   F R I E N D -                    
                                      &                                       
                       - I N T E G R A L  F E E D E R -                       
                                                                              
 v1 FN, 2020, v2 2021, v3 2022-2024                                           
------------------------------------------------------------------------------


----------------------
SHARK INTEGRAL PACKAGE
----------------------

Number of atoms                             ...    108
Number of basis functions                   ...   1359
Number of shells                            ...    783
Maximum angular momentum                    ...      3
Integral batch strategy                     ... SHARK/LIBINT Hybrid
RI-J (if used) integral strategy            ... SPLIT-RIJ (Revised 2003 algorithm where possible)
Printlevel                                  ...      1
Contraction scheme used                     ... SEGMENTED contraction
Prescreening option                         ... SCHWARTZ
   Thresh                                   ... 2.500e-11
   Tcut                                     ... 2.500e-12
   Tpresel                                  ... 2.500e-12 
Coulomb Range Separation                    ... NOT USED
Exchange Range Separation                   ... NOT USED
Multipole approximations                    ... NOT USED
Finite Nucleus Model                        ... NOT USED
CABS basis                                  ... NOT available
Auxiliary Coulomb fitting basis             ... AVAILABLE
   # of basis functions in Aux-J            ...   3358
   # of shells in Aux-J                     ...   1108
   Maximum angular momentum in Aux-J        ...      4
Auxiliary J/K fitting basis                 ... NOT available
Auxiliary Correlation fitting basis         ... NOT available
Auxiliary 'external' fitting basis          ... NOT available

Checking pre-screening integrals            ... done (  0.0 sec) Dimension = 783
Check shell pair data                       ... done (  0.0 sec)
Shell pair information
Shell pair cut-off parameter TPreSel        ...   2.5e-12
Total number of shell pairs                 ...    306936
Shell pairs after pre-screening             ...    141523
Total number of primitive shell pairs       ...    818326
Primitive shell pairs kept                  ...    250828
          la=0 lb=0:  63590 shell pairs
          la=1 lb=0:  48957 shell pairs
          la=1 lb=1:   9014 shell pairs
          la=2 lb=0:  13383 shell pairs
          la=2 lb=1:   5423 shell pairs
          la=2 lb=2:    829 shell pairs
          la=3 lb=0:    192 shell pairs
          la=3 lb=1:     99 shell pairs
          la=3 lb=2:     35 shell pairs
          la=3 lb=3:      1 shell pairs

Calculating one electron integrals          ... done (  0.2 sec)
Calculating RI/J V-Matrix + Cholesky decomp.... done (  2.3 sec)
Calculating Nuclear repulsion               ... done (  0.0 sec) ENN=   9526.132234466602 Eh

Diagonalization of the overlap matrix:
Smallest eigenvalue                        ... 1.207e-05
Time for diagonalization                   ...    0.240 sec
Threshold for overlap eigenvalues          ... 1.000e-07
Number of eigenvalues below threshold      ... 0
Time for construction of square roots      ...    0.218 sec
Total time needed                          ...    0.476 sec

-------------------
DFT GRID GENERATION
-------------------

General Integration Accuracy     IntAcc      ... 4.388
Radial Grid Type                 RadialGrid  ... OptM3 with GC (2021)
Angular Grid (max. ang.)         AngularGrid ... 4 (Lebedev-302)
Angular grid pruning method      GridPruning ... 4 (adaptive)
Weight generation scheme         WeightScheme... mBecke (2022)
Basis function cutoff            BFCut       ... 1.0000e-11
Integration weight cutoff        WCut        ... 1.0000e-14
Partially contracted basis set               ... off
Rotationally invariant grid construction     ... off
Angular grids for H and He will be reduced by one unit
Core-polarized basis detected: some atoms will have their core
                               angular grid increased.
Steep s-basis detected: some atoms will have their radial
                        grid points doubled.

SpecialGrid => Setting IntAcc for atom type =   7 to   8.0000
SpecialGrid => Setting IntAcc for atom type =  29 to   9.0000
SpecialGrid => Setting IntAcc for atom type =   7 to   8.0000
SpecialGrid => Setting IntAcc for atom type =   7 to   8.0000
SpecialGrid => Setting IntAcc for atom type =   7 to   8.0000
SpecialGrid => Setting IntAcc for atom type =   7 to   8.0000
SpecialGrid => Setting IntAcc for atom type =   7 to   8.0000
SpecialGrid => Setting IntAcc for atom type =   7 to   8.0000
SpecialGrid => Setting IntAcc for atom type =   7 to   8.0000
Total number of grid points                  ...   147221
Total number of batches                      ...     2357
Average number of points per batch           ...       62
Average number of grid points per atom       ...     1363

--------------------
COSX GRID GENERATION
--------------------

GRIDX 1
-------
General Integration Accuracy     IntAcc      ... 3.816
Radial Grid Type                 RadialGrid  ... OptM3 with GC (2021)
Angular Grid (max. ang.)         AngularGrid ... 1 (Lebedev-50)
Angular grid pruning method      GridPruning ... 4 (adaptive)
Weight generation scheme         WeightScheme... mBecke (2022)
Basis function cutoff            BFCut       ... 1.0000e-11
Integration weight cutoff        WCut        ... 1.0000e-14
Partially contracted basis set               ... on
Rotationally invariant grid construction     ... off
Angular grids for H and He will be reduced by one unit
Core-polarized basis detected: some atoms will have their core
                               angular grid increased.
Steep s-basis detected: some atoms will have their radial
                        grid points doubled.

SpecialGrid => Setting IntAcc for atom type =   7 to   8.0000
SpecialGrid => Setting IntAcc for atom type =  29 to   9.0000
SpecialGrid => Setting IntAcc for atom type =   7 to   8.0000
SpecialGrid => Setting IntAcc for atom type =   7 to   8.0000
SpecialGrid => Setting IntAcc for atom type =   7 to   8.0000
SpecialGrid => Setting IntAcc for atom type =   7 to   8.0000
SpecialGrid => Setting IntAcc for atom type =   7 to   8.0000
SpecialGrid => Setting IntAcc for atom type =   7 to   8.0000
SpecialGrid => Setting IntAcc for atom type =   7 to   8.0000
Total number of grid points                  ...    95090
Total number of batches                      ...      794
Average number of points per batch           ...      119
Average number of grid points per atom       ...      880
UseSFitting                                  ... on

GRIDX 2
-------
General Integration Accuracy     IntAcc      ... 4.020
Radial Grid Type                 RadialGrid  ... OptM3 with GC (2021)
Angular Grid (max. ang.)         AngularGrid ... 2 (Lebedev-110)
Angular grid pruning method      GridPruning ... 4 (adaptive)
Weight generation scheme         WeightScheme... mBecke (2022)
Basis function cutoff            BFCut       ... 1.0000e-11
Integration weight cutoff        WCut        ... 1.0000e-14
Partially contracted basis set               ... on
Rotationally invariant grid construction     ... off
Angular grids for H and He will be reduced by one unit
Core-polarized basis detected: some atoms will have their core
                               angular grid increased.
Steep s-basis detected: some atoms will have their radial
                        grid points doubled.

SpecialGrid => Setting IntAcc for atom type =   7 to   8.0000
SpecialGrid => Setting IntAcc for atom type =  29 to   9.0000
SpecialGrid => Setting IntAcc for atom type =   7 to   8.0000
SpecialGrid => Setting IntAcc for atom type =   7 to   8.0000
SpecialGrid => Setting IntAcc for atom type =   7 to   8.0000
SpecialGrid => Setting IntAcc for atom type =   7 to   8.0000
SpecialGrid => Setting IntAcc for atom type =   7 to   8.0000
SpecialGrid => Setting IntAcc for atom type =   7 to   8.0000
SpecialGrid => Setting IntAcc for atom type =   7 to   8.0000
Total number of grid points                  ...    95090
Total number of batches                      ...      794
Average number of points per batch           ...      119
Average number of grid points per atom       ...      880
UseSFitting                                  ... on

GRIDX 3
-------
General Integration Accuracy     IntAcc      ... 4.338
Radial Grid Type                 RadialGrid  ... OptM3 with GC (2021)
Angular Grid (max. ang.)         AngularGrid ... 3 (Lebedev-194)
Angular grid pruning method      GridPruning ... 4 (adaptive)
Weight generation scheme         WeightScheme... mBecke (2022)
Basis function cutoff            BFCut       ... 1.0000e-11
Integration weight cutoff        WCut        ... 1.0000e-14
Partially contracted basis set               ... on
Rotationally invariant grid construction     ... off
Angular grids for H and He will be reduced by one unit
Core-polarized basis detected: some atoms will have their core
                               angular grid increased.
Steep s-basis detected: some atoms will have their radial
                        grid points doubled.

SpecialGrid => Setting IntAcc for atom type =   7 to   8.0000
SpecialGrid => Setting IntAcc for atom type =  29 to   9.0000
SpecialGrid => Setting IntAcc for atom type =   7 to   8.0000
SpecialGrid => Setting IntAcc for atom type =   7 to   8.0000
SpecialGrid => Setting IntAcc for atom type =   7 to   8.0000
SpecialGrid => Setting IntAcc for atom type =   7 to   8.0000
SpecialGrid => Setting IntAcc for atom type =   7 to   8.0000
SpecialGrid => Setting IntAcc for atom type =   7 to   8.0000
SpecialGrid => Setting IntAcc for atom type =   7 to   8.0000
Total number of grid points                  ...    95090
Total number of batches                      ...      794
Average number of points per batch           ...      119
Average number of grid points per atom       ...      880
UseSFitting                                  ... on
Initializing property integral containers    ... done (  0.0 sec)

SHARK setup successfully completed in  21.1 seconds

Maximum memory used throughout the entire STARTUP-calculation: 331.9 MB


           ************************************************************
           *        Program running with 16 parallel MPI-processes    *
           *              working on a common directory               *
           ************************************************************
-------------------------------------------------------------------------------
                                 ORCA GUESS
                   Start orbitals & Density for SCF / CASSCF
-------------------------------------------------------------------------------

------------
SCF SETTINGS
------------
Hamiltonian:
 Density Functional     Method          .... DFT(GTOs)
 Exchange Functional    Exchange        .... PBE
   PBE kappa parameter   XKappa         ....  0.804000
   PBE mue parameter    XMuePBE         ....  0.219520
 Correlation Functional Correlation     .... PBE
   PBE beta parameter  CBetaPBE         ....  0.066725
 LDA part of GGA corr.  LDAOpt          .... PW91-LDA
 Gradients option       PostSCFGGA      .... off
 Hybrid DFT is turned on
   Fraction HF Exchange ScalHFX         ....  0.250000
   Scaling of DF-GGA-X  ScalDFX         ....  0.750000
   Scaling of DF-GGA-C  ScalDFC         ....  1.000000
   Scaling of DF-LDA-C  ScalLDAC        ....  1.000000
   Perturbative correction              ....  0.000000
   NL short-range parameter             ....  6.900000
 RI-approximation to the Coulomb term is turned on
   Number of AuxJ basis functions       .... 3358
   RIJ-COSX (HFX calculated with COS-X)).... on


General Settings:
 Integral files         IntName         .... system
 Hartree-Fock type      HFTyp           .... UHF
 Total Charge           Charge          ....    2
 Multiplicity           Mult            ....    2
 Number of Electrons    NEL             ....  419
 Basis Dimension        Dim             .... 1359
 Nuclear Repulsion      ENuc            ....   9526.1322344666 Eh

Convergence Acceleration:
 AO-DIIS                CNVDIIS         .... on
   Start iteration      DIISMaxIt       ....    12
   Startup error        DIISStart       ....  0.200000
   # of expansion vecs  DIISMaxEq       ....     5
   Bias factor          DIISBfac        ....   1.050
   Max. coefficient     DIISMaxC        ....  10.000
 MO-DIIS                CNVKDIIS        .... off
 Trust-Rad. Augm. Hess. CNVTRAH         .... auto
   Auto Start mean grad. ratio tolernc. ....  1.125000
   Auto Start start iteration           ....    50
   Auto Start num. interpolation iter.  ....    10
   Max. Number of Micro iterations      ....    24
   Max. Number of Macro iterations      .... Maxiter - #DIIS iter
   Number of Davidson start vectors     ....     2
   Converg. threshold    (grad. norm)   ....   1.000e-05
   Grad. Scal. Fac. for Micro threshold ....   0.100
   Minimum threshold for Micro iter.    ....   1.000e-02
   NR start threshold (gradient norm)   ....   1.000e-04
   Initial trust radius                 ....   0.400
   Minimum AH scaling param. (alpha)    ....   1.000
   Maximum AH scaling param. (alpha)    .... 1000.000
   Quad. conv. algorithm                .... NR
   White noise on init. David. guess    .... on
   Maximum white noise                  ....   0.010
   Pseudo random numbers                .... off
   Inactive MOs                         .... canonical
   Orbital update algorithm             .... Taylor
   Preconditioner                       .... Diag
   Full preconditioner red. dimension   ....   250
 SOSCF                  CNVSOSCF        .... on
   Start iteration      SOSCFMaxIt      ....   150
   Startup grad/error   SOSCFStart      ....  0.003300
   Hessian update       SOSCFHessUp     .... L-BFGS
 Level Shifting         CNVShift        .... on
   Level shift para.    LevelShift      ....    0.2500
   Turn off err/grad.   ShiftErr        ....    0.0010
 Zerner damping         CNVZerner       .... off
 Static damping         CNVDamp         .... on
   Fraction old density DampFac         ....    0.7000
   Max. Damping (<1)    DampMax         ....    0.9800
   Min. Damping (>=0)   DampMin         ....    0.0000
   Turn off err/grad.   DampErr         ....    0.1000

SCF Procedure:
 Maximum # iterations   MaxIter         ....   125
 SCF integral mode      SCFMode         .... Direct
   Integral package                     .... SHARK and LIBINT hybrid scheme
 Reset frequency        DirectResetFreq ....    20
 Integral Threshold     Thresh          ....  2.500e-11 Eh
 Primitive CutOff       TCut            ....  2.500e-12 Eh

Convergence Tolerance:
 Convergence Check Mode ConvCheckMode   .... Total+1el-Energy
 Convergence forced     ConvForced      .... 0
 Energy Change          TolE            ....  1.000e-08 Eh
 1-El. energy change                    ....  1.000e-05 Eh
 Orbital Gradient       TolG            ....  1.000e-05
 Orbital Rotation angle TolX            ....  1.000e-05
 DIIS Error             TolErr          ....  5.000e-07

------------------------------
INITIAL GUESS: MODEL POTENTIAL
------------------------------
Loading Hartree-Fock densities                     ... done
Calculating cut-offs                               ... done
Initializing the effective Hamiltonian             ... done
Setting up the integral package (SHARK)            ... done
Starting the Coulomb interaction                   ... done (   5.0 sec)
Making the grid                                    ... done (   1.4 sec)
Mapping shells                                     ... done
Starting the XC term evaluation                    ... done (   0.7 sec)
  promolecular density results
     # of electrons  =    420.998608414
     EX              =   -377.198726569
     EC              =    -14.718731413
     EX+EC           =   -391.917457983
Transforming the Hamiltonian                       ... done (   0.1 sec)
Diagonalizing the Hamiltonian                      ... done (   0.3 sec)
Back transforming the eigenvectors                 ... done (   0.2 sec)
Now organizing SCF variables                       ... done
                      ------------------
                      INITIAL GUESS DONE (   8.1 sec)
                      ------------------
             **** ENERGY FILE WAS UPDATED (system.en.tmp) ****
Finished Guess after  13.8 sec
Maximum memory used throughout the entire GUESS-calculation: 203.8 MB


           ************************************************************
           *        Program running with 16 parallel MPI-processes    *
           *              working on a common directory               *
           ************************************************************

-------------------------------------------------------------------------------------------
                                      ORCA LEAN-SCF
                              memory conserving SCF solver
-------------------------------------------------------------------------------------------

----------------------------------------D-I-I-S--------------------------------------------
Iteration    Energy (Eh)           Delta-E    RMSDP     MaxDP     DIISErr   Damp  Time(sec)
-------------------------------------------------------------------------------------------
               ***  Starting incremental Fock matrix formation  ***
    1    -3934.0759133491374087     0.00e+00  2.46e-03  1.02e+00  2.42e-01  0.700  35.2
Warning: op=0 Small HOMO/LUMO gap (   0.045) - skipping pre-diagonalization
         Will do a full diagonalization
    2    -3934.5049165820018970    -4.29e-01  1.89e-03  9.60e-01  1.70e-01  0.700  27.9
                               ***Turning on AO-DIIS***
    3    -3934.6947686409930611    -1.90e-01  1.25e-03  6.89e-01  1.19e-01  0.700  25.9
    4    -3934.8058056145437149    -1.11e-01  8.12e-04  4.31e-01  8.33e-02  0.700  25.0
    5    -3934.8796659511244798    -7.39e-02  1.87e-03  9.75e-01  5.85e-02  0.000  23.5
                              *** Initializing SOSCF ***
---------------------------------------S-O-S-C-F--------------------------------------
Iteration    Energy (Eh)           Delta-E    RMSDP     MaxDP     MaxGrad    Time(sec)
--------------------------------------------------------------------------------------
    6    -3935.0489786555226601    -1.69e-01  7.10e-05  1.84e-02  2.60e-03    26.9
               *** Restarting incremental Fock matrix formation ***
    7    -3935.0493292845221731    -3.51e-04  4.70e-05  1.05e-02  3.94e-03    33.4
    8    -3935.0491610635235702     1.68e-04  4.38e-05  1.79e-02  3.49e-03    23.9
    9    -3935.0495327696189634    -3.72e-04  1.44e-05  2.30e-03  1.28e-03    22.4
   10    -3935.0495030657984898     2.97e-05  1.60e-05  7.99e-03  1.55e-03    21.0
   11    -3935.0495512520574266    -4.82e-05  6.11e-06  1.97e-03  1.56e-04    19.6
   12    -3935.0495503251222544     9.27e-07  2.84e-06  1.03e-03  1.86e-04    18.0
   13    -3935.0495522988076118    -1.97e-06  4.83e-06  1.73e-03  2.40e-05    16.3
   14    -3935.0495522260389407     7.28e-08  3.60e-06  2.82e-03  2.71e-05    15.7
   15    -3935.0495522598121170    -3.38e-08  2.62e-06  1.67e-03  1.05e-05    14.3
   16    -3935.0495524035377457    -1.44e-07  4.68e-06  3.91e-03  8.68e-06    14.3
   17    -3935.0495523951394716     8.40e-09  6.46e-06  5.24e-03  3.97e-06    19.5
                 **** Energy Check signals convergence ****

               *****************************************************
               *                     SUCCESS                       *
               *           SCF CONVERGED AFTER  17 CYCLES          *
               *****************************************************

Recomputing exchange energy using gridx3       ... done (   24.758 sec)
Old exchange energy                            :    -95.891360769 Eh
New exchange energy                            :    -95.891360785 Eh
Exchange energy change after final integration :     -0.000000016 Eh
Total energy after final integration           :  -3935.049552411 Eh
             **** ENERGY FILE WAS UPDATED (system.en.tmp) ****

----------------
TOTAL SCF ENERGY
----------------

Total Energy       :      -3935.04955241132666 Eh         -107078.14207 eV

Components:
Nuclear Repulsion  :       9526.13223446660231 Eh          259219.23655 eV
Electronic Energy  :     -13461.18178686174178 Eh         -366297.37862 eV
One Electron Energy:     -24306.83909767019213 Eh         -661422.71793 eV
Two Electron Energy:      10845.65731080845035 Eh          295125.33931 eV

Virial components:
Potential Energy   :      -7853.88664448706004 Eh         -213715.12066 eV
Kinetic Energy     :       3918.83709207573384 Eh          106636.97859 eV
Virial Ratio       :          2.00413705901896

DFT components:
N(Alpha)           :      210.034731830221 electrons
N(Beta)            :      209.034628381414 electrons
N(Total)           :      419.069360211635 electrons
E(X)               :     -286.805131522787 Eh       
E(C)               :      -14.606068831368 Eh       
E(XC)              :     -301.411200354156 Eh       

---------------
SCF CONVERGENCE
---------------

  Last Energy change         ...   -8.3983e-09  Tolerance :   1.0000e-08
  Last MAX-Density change    ...    5.2399e-03  Tolerance :   1.0000e-07
  Last RMS-Density change    ...    6.4557e-06  Tolerance :   5.0000e-09
  Last DIIS Error            ...    2.6008e-03  Tolerance :   5.0000e-07
  Last Orbital Gradient      ...    3.9704e-06  Tolerance :   1.0000e-05
  Last Orbital Rotation      ...    2.5096e-05  Tolerance :   1.0000e-05


----------------------
UHF SPIN CONTAMINATION
----------------------

Warning: in a DFT calculation there is little theoretical justification to 
         calculate <S**2> as in Hartree-Fock theory. We will do it anyways
         but you should keep in mind that the values have only limited relevance

Expectation value of <S**2>     :     0.752982
[...]
     X        0.3238721       0.9346920       0.1464844
     Y        0.7457379      -0.3474855       0.5684442
     Z        0.5822215      -0.0748642      -0.8095761

 Note: Tensor is right-handed

 Contributions:
 V(El )       0.2536841       0.6746539  -0.9283380
 V(Nuc)       0.2168210      -0.0529334  -0.1638875

 Quadrupole tensor eigenvalues (in MHz;Q= 0.0204 I=  1.0)
  e**2qQ            =    -5.245615 MHz 
  e**2qQ/(4I*(2I-1))=    -1.311404 MHz 
  eta               =     0.138447
  NOTE: the diagonal representation of the SH term I*Q*I = e**2qQ/(4I(2I-1))*[-(1-eta),-(1+eta),2]

 -----------------------------------------------------------
 Nucleus   6N : A  : Isotope=   14 I=  1.0 P= 38.5677 MHz/au**3 
                Q  : Isotope=   14 I=  1.0 Q=  0.0204 barn      
                HFC: iso  =YES dip=YES orb=YES gauge=YES    
                EFG: fgrad=YES rho= NO                      
 -----------------------------------------------------------

 Total HFC matrix (all values in MHz): 
 ----------------------------------------------------------------
                32.0330               1.0926               2.6659
                 1.0770              32.7313               2.4197
                 2.6385               2.4299              40.0651

 A(FC)          35.0297              35.0297              35.0297
 A(SD)          -3.8082              -2.7703               6.5785
 A(ORB+DIA)     -0.1130              -0.1800               0.0335    A(PC) =   -0.0865
 A(ORB)         -0.1126              -0.1797               0.0331    A(PC) =   -0.0864
 A(DIA)         -0.0004              -0.0003               0.0004    A(PC) =   -0.0001
             ----------           ----------           ----------
 A(Tot)         31.1085              32.0793              41.6417    A(iso)=   34.9432
 Orientation: 
  X           0.9194830            0.2697125            0.2860178
  Y          -0.3500588            0.8928153            0.2834426
  Z          -0.1789131           -0.3607437            0.9153437

Notes:  (1) The A matrix conforms to the "SAI" spin Hamiltonian convention.
        (2) Tensor is right-handed.

 Raw EFG matrix (all values in a.u.**-3):
 ------------------------------------------------------
              0.2375814      -0.1086056      -0.2647562
             -0.1086056       0.1962376      -0.1997641
             -0.2647562      -0.1997641      -0.4338191

 V(Tot)       0.2451529       0.3446476      -0.5898005
 Orientation: 
     X        0.2838557       0.9019025      -0.3255731
     Y        0.8842506      -0.3775341      -0.2748979
     Z       -0.3708460      -0.2098569      -0.9046731

 Note: Tensor is right-handed

 Contributions:
 V(El )       1.8424318      -0.1520445  -1.6903873
 V(Nuc)      -1.5972789       0.4966921   1.1005868

 Quadrupole tensor eigenvalues (in MHz;Q= 0.0204 I=  1.0)
  e**2qQ            =    -2.832626 MHz 
  e**2qQ/(4I*(2I-1))=    -0.708156 MHz 
  eta               =     0.168692
  NOTE: the diagonal representation of the SH term I*Q*I = e**2qQ/(4I(2I-1))*[-(1-eta),-(1+eta),2]

 -----------------------------------------------------------
 Nucleus   7N : A  : Isotope=   14 I=  1.0 P= 38.5677 MHz/au**3 
                Q  : Isotope=   14 I=  1.0 Q=  0.0204 barn      
                HFC: iso  =YES dip=YES orb=YES gauge=YES    
                EFG: fgrad=YES rho= NO                      
 -----------------------------------------------------------

 Total HFC matrix (all values in MHz): 
 ----------------------------------------------------------------
                36.5907              -3.1882              -4.3058
                -3.1832              34.0844               2.3362
                -4.2801               2.3285              34.5146

 A(FC)          35.1570              35.1570              35.1570
 A(SD)          -3.9114              -2.8474               6.7588
 A(ORB+DIA)     -0.1253              -0.1896               0.0336    A(PC) =   -0.0938
 A(ORB)         -0.1249              -0.1892               0.0332    A(PC) =   -0.0936
 A(DIA)         -0.0005              -0.0004               0.0004    A(PC) =   -0.0001
             ----------           ----------           ----------
 A(Tot)         31.1203              32.1200              41.9494    A(iso)=   35.0632
 Orientation: 
  X          -0.6531081            0.2745419            0.7057454
  Y          -0.1116084            0.8868914           -0.4482936
  Z          -0.7489949           -0.3715513           -0.5485948

Notes:  (1) The A matrix conforms to the "SAI" spin Hamiltonian convention.
        (2) Tensor is right-handed.

 Raw EFG matrix (all values in a.u.**-3):
 ------------------------------------------------------
             -0.1692575       0.2775444       0.3558954
              0.2775444       0.0821643      -0.1798635
              0.3558954      -0.1798635       0.0870932

 V(Tot)       0.2449240       0.3385636      -0.5834876
 Orientation: 
     X        0.2930638      -0.6099872      -0.7362264
     Y        0.8888839      -0.1097779       0.4447855
     Z       -0.3521349      -0.7847703       0.5100359

 Note: Tensor is right-handed

 Contributions:
 V(El )       1.8436035      -0.1778516  -1.6657519
 V(Nuc)      -1.5986796       0.5164153   1.0822643

 Quadrupole tensor eigenvalues (in MHz;Q= 0.0204 I=  1.0)
  e**2qQ            =    -2.802307 MHz 
  e**2qQ/(4I*(2I-1))=    -0.700577 MHz 
  eta               =     0.160483
  NOTE: the diagonal representation of the SH term I*Q*I = e**2qQ/(4I(2I-1))*[-(1-eta),-(1+eta),2]

 -----------------------------------------------------------
 Nucleus   8N : A  : Isotope=   14 I=  1.0 P= 38.5677 MHz/au**3 
                Q  : Isotope=   14 I=  1.0 Q=  0.0204 barn      
                HFC: iso  =YES dip=YES orb=YES gauge=YES    
                EFG: fgrad=YES rho= NO                      
 -----------------------------------------------------------

 Total HFC matrix (all values in MHz): 
 ----------------------------------------------------------------
                 0.0888              -0.0214              -0.0293
                -0.0215               0.0845               0.0347
                -0.0297               0.0347               0.1287

 A(FC)           0.1012               0.1012               0.1012
 A(SD)          -0.0359              -0.0268               0.0627
 A(ORB+DIA)     -0.0019              -0.0007               0.0011    A(PC) =   -0.0005
 A(ORB)         -0.0019              -0.0007               0.0011    A(PC) =   -0.0005
 A(DIA)         -0.0000              -0.0000               0.0000    A(PC) =   -0.0000
             ----------           ----------           ----------
 A(Tot)          0.0634               0.0737               0.1649    A(iso)=    0.1007
 Orientation: 
  X           0.4057793           -0.8072511           -0.4285893
  Y           0.8699231            0.1973042            0.4520010
  Z          -0.2803158           -0.5562524            0.7823083

Notes:  (1) The A matrix conforms to the "SAI" spin Hamiltonian convention.
        (2) Tensor is right-handed.

 Raw EFG matrix (all values in a.u.**-3):
 ------------------------------------------------------
             -0.6056260       0.3197118      -0.5618125
              0.3197118       0.4710588       0.1031080
             -0.5618125       0.1031080       0.1345672

 V(Tot)       0.4112431       0.5722173      -0.9834604
 Orientation: 
     X       -0.3479463       0.3665177      -0.8629010
     Y        0.3908095       0.8933345       0.2218588
     Z        0.8521745      -0.2600350      -0.4540711

 Note: Tensor is right-handed

 Contributions:
 V(El )      -0.7543795       1.8208958  -1.0665163
 V(Nuc)       1.1656226      -1.2486785   0.0830559

 Quadrupole tensor eigenvalues (in MHz;Q= 0.0204 I=  1.0)
  e**2qQ            =    -4.723250 MHz 
  e**2qQ/(4I*(2I-1))=    -1.180813 MHz 
  eta               =     0.163681
  NOTE: the diagonal representation of the SH term I*Q*I = e**2qQ/(4I(2I-1))*[-(1-eta),-(1+eta),2]

 -----------------------------------------------------------
 Nucleus   9N : A  : Isotope=   14 I=  1.0 P= 38.5677 MHz/au**3 
                Q  : Isotope=   14 I=  1.0 Q=  0.0204 barn      
                HFC: iso  =YES dip=YES orb=YES gauge=YES    
                EFG: fgrad=YES rho= NO                      
 -----------------------------------------------------------

 Total HFC matrix (all values in MHz): 
 ----------------------------------------------------------------
                 0.0105              -0.0055              -0.0135
                -0.0054               0.0003               0.0081
                -0.0134               0.0085               0.0345

 A(FC)           0.0153               0.0153               0.0153
 A(SD)          -0.0164              -0.0106               0.0270
 A(ORB+DIA)     -0.0007              -0.0003               0.0006    A(PC) =   -0.0001
 A(ORB)         -0.0007              -0.0003               0.0006    A(PC) =   -0.0001
 A(DIA)         -0.0000              -0.0000               0.0000    A(PC) =   -0.0000
             ----------           ----------           ----------
 A(Tot)         -0.0018               0.0044               0.0428    A(iso)=    0.0151
 Orientation: 
  X           0.5045235           -0.7604590           -0.4088498
  Y           0.8632665            0.4525652            0.2235074
  Z           0.0150630           -0.4657111            0.8848086

Notes:  (1) The A matrix conforms to the "SAI" spin Hamiltonian convention.
        (2) Tensor is right-handed.

 Raw EFG matrix (all values in a.u.**-3):
 ------------------------------------------------------
             -0.5446811       0.3751815       0.6895146
              0.3751815       0.4732936      -0.2714359
              0.6895146      -0.2714359       0.0713874

 V(Tot)       0.5131025       0.6125309      -1.1256333
 Orientation: 
     X       -0.5867402       0.0982963       0.8037871
     Y       -0.2242198       0.9340746      -0.2779030
     Z       -0.7781140      -0.3432819      -0.5260192

 Note: Tensor is right-handed

 Contributions:
 V(El )      -0.1169192       0.0955600   0.0213592
 V(Nuc)       0.6300216       0.5169709  -1.1469925

 Quadrupole tensor eigenvalues (in MHz;Q= 0.0204 I=  1.0)
  e**2qQ            =    -5.406062 MHz 
  e**2qQ/(4I*(2I-1))=    -1.351515 MHz 
  eta               =     0.088331
  NOTE: the diagonal representation of the SH term I*Q*I = e**2qQ/(4I(2I-1))*[-(1-eta),-(1+eta),2]


Hyperfine and quadrupole coupling calculation done in  65.1 sec 
----------------------------------------------------------------------------
                           ORCA EULER ANGLE PROGRAM
----------------------------------------------------------------------------

Only g-tensor available        -->  using g-tensor as reference tensor

Reference tensor               ...  g

g-tensor ordering              ...  |g_min> --> |gx>
                                    |g_mid> --> |gy>
                                    |g_max> --> |gz>

A- and EFG-tensor ordering     ...  the axes |Ax>, |Qx>, |Ay>, etc. are assigned
                                    such that the Euler rotation is minimal. You
                                    can find the respective eigenvalues as Ax,
                                    EFGx, Ay, etc. in the tables below.
                                    The relation of |Ax>, |Ay>,  etc. to Amin, Amid, etc.
                                    (as printed in the ORCA EPR/NMR CALCULATION Output)
                                    is obtained in the detailed printout.

Euler rotation around          ...  z - y - z
   First rotation              -->  by alpha around z
   Second rotation             -->  by beta around y'
   Third rotation              -->  by gamma around z''
   Positive / Negative angle   -->  clockwise / counterclockwise rotation

Plot EFG-tensors                    (-)
Plot HFC-tensors                    (-)
Detailed Printout                   (-)

-------------------------------------------------------------------------
          Euler rotation of hyperfine tensor to g-tensor
-------------------------------------------------------------------------

-------------------------------------------------------------------
 Atom  |   Alpha    Beta    Gamma   |   Ax       Ay       Az 
       |          [degrees]         |           [MHz]         
-------------------------------------------------------------------
  0Cu      50.9      0.4    -45.6      26.87    21.64  -596.38
  2N      -98.1     13.3     82.6      50.61    38.85    37.23
  3N     -172.4     13.5   -151.9      -1.11    -1.06    -0.30
  4N     -171.3     12.9    171.0      39.10    51.04    37.44
  5N       -1.7     13.5     45.3      -1.12    -1.07    -0.32
  6N       31.9      2.4    -52.6      31.11    41.64    32.08
  7N       40.5      2.6    -35.9      41.95    31.12    32.12
  8N       85.9     11.5    -60.4       0.16     0.07     0.06
  9N      119.0     27.6    -86.4       0.04     0.00    -0.00
-------------------------------------------------------------------


-------------------------------------------------------------------------------
    Euler rotation of Electric Field Gradient (EFG) tensor to g-tensor
-------------------------------------------------------------------------------

-------------------------------------------------------------------
 Atom  |   Alpha    Beta    Gamma  |   EFGx     EFGy     EFGz
       |          [degrees]        |         [a.u.**-3]       
-------------------------------------------------------------------
  0Cu      82.6      0.5    -44.8      0.98     1.17    -2.15
  2N     -113.3      5.5     97.1     -0.62     0.23     0.39
  3N      173.0     31.8   -163.3      0.47     0.63    -1.10
  4N     -152.5      4.5    153.1      0.24    -0.63     0.39
  5N      -82.6     32.1     57.3      0.62     0.47    -1.09
  6N       17.6      3.2    -35.9      0.34    -0.59     0.25
  7N       54.5      3.8    -52.7     -0.58     0.34     0.24
  8N      105.8     10.2    -73.9      0.41    -0.98     0.57
  9N     -161.1      8.0    159.5     -1.13     0.51     0.61
-------------------------------------------------------------------


Maximum memory used throughout the entire PROP-calculation: 450.8 MB

--------------------------------
SUGGESTED CITATIONS FOR THIS RUN
--------------------------------

Below you find a list of papers that are relevant to this ORCA run
We neither can nor want to force you to cite these papers, but we appreciate if you do
You receive ORCA, which is the product of decades of hard work by many enthusiastic individuals, for free
The only thing we kindly ask in return is that you cite our papers,
We deeply appreciate it, if you show your appreciation for ORCA by not just citing the generic ORCA reference.

Please note that relegating all ORCA citations to the supporting information does *not* help us.
SI sections are not indexed - citations you put there will not count into any citation statistics
But we need these citations in order to attract the funding resources that allow us to do what we are doing

Therefore, if you are a happy ORCA user, please consider citing a few of the papers listed below in the main body of your paper

In addition to the list printed below, the program has created the file system.bibtex that contains the list in bibtex format
You can import this file easily into all common literature databanks and citation aid programs


List of essential papers. We consider these as the minimum necessary citations

  1. Neese,F.
     Software update: the ORCA program system, version 5.0
     WIRES Comput. Molec. Sci., 2022 12(1)e1606
     doi.org/10.1002/wcms.1606

List of papers to cite with high priority. The work reported in these papers was absolutely
necessary for this run to complete.
Our perspective: the developers of density functionals and basis sets usually get cited in chemistry papers
Good! But without the algorithms to do something with them, the functionals or basis sets would not do anything.
Hence, in our opinion, the algorithm design and method developments papers are equally worthy of getting cited

  1. Neese,F.
     Prediction of electron paramagnetic resonance g values using coupled perturbed Hartree-Fock and Kohn-Sham theory
     J. Chem. Phys., 2001 115(24)11080-11096
     doi.org/10.1063/1.1419058
  2. Neese,F.
     An improvement of the resolution of the identity approximation for the formation of the Coulomb matrix
     J. Comp. Chem., 2003 24(14)1740-1747
     doi.org/10.1002/jcc.10318
  3. Neese,F.
     Metal and ligand hyperfine couplings in transition metal complexes: The effect of spin-orbit coupling as studied by coupled perturbed Kohn-Sham theory
     J. Chem. Phys., 2003 118(9)3939-3948
     doi.org/10.1063/1.1540619
  4. Neese,F.
     Efficient and accurate approximations to the molecular spin-orbit coupling operator and their use in molecular g-tensor calculations
     J. Chem. Phys., 2005 122(3)Art. No. 034107
     doi.org/10.1063/1.1829047
  5. Neese,F.; Wennmohs,F.; Hansen,A.; Becker,U.
     Efficient, approximate and parallel Hartree-Fock and hybrid DFT calculations. A 'chain-of-spheres' algorithm for the Hartree-Fock exchange
     Chem. Phys., 2009 356(1-3)98-109
     doi.org/10.1016/j.chemphys.2008.10.036
  6. Helmich-Paris,B.; de Souza,B.; Neese,F.; Izsák,R.
     An improved chain of spheres for exchange algorithm
     J. Chem. Phys., 2021 155 104109
     doi.org/doi: 10.1063/5.0058766.
  7. Neese,F.
     The SHARK Integral Generation and Digestion System
     J. Comp. Chem., 2022  1-16
     doi.org/10.1002/jcc.26942

List of suggested additional citations. These are papers that are important in the 'surrounding' of 
of this run, or papers that preceded the highly important papers. If you like your results we are grateful for a citation.

  1. Neese,F.
     Theoretical study of ligand superhyperfine structure. Application to Cu(II) complexes
     J. Phys. Chem. A, 2001 105(17)4290-4299
     doi.org/10.1021/jp003254f
  2. Izsak,R.; Neese,F.
     An overlap fitted chain of spheres exchange method
     J. Chem. Phys., 2011 135 144105
     doi.org/10.1063/1.3646921
  3. Izsak,R.; Hansen,A.; Neese,F.
     The resolution of identity and chain of spheres approximations for the LPNO-CCSD singles Fock term
     Molec. Phys., 2012 110 2413-2417
     doi.org/10.1080/00268976.2012.687466
  4. Neese,F.
     The ORCA program system
     WIRES Comput. Molec. Sci., 2012 2(1)73-78
     doi.org/10.1002/wcms.81
  5. Izsak,R.; Neese,F.; Klopper,W.
     Robust fitting techniques in the chain of spheres approximation to the Fock exchange: The role of the complementary space
     J. Chem. Phys., 2013 139 
     doi.org/10.1063/1.4819264
  6. Neese,F.
     Software update: the ORCA program system, version 4.0
     WIRES Comput. Molec. Sci., 2018 8(1)1-6
     doi.org/10.1002/wcms.1327
  7. Neese,F.; Wennmohs,F.; Becker,U.; Riplinger,C.
     The ORCA quantum chemistry program package
     J. Chem. Phys., 2020 152 Art. No. L224108
     doi.org/10.1063/5.0004608

List of optional additional citations

  1. Neese,F.
     Approximate second-order SCF convergence for spin unrestricted wavefunctions
     Chem. Phys. Lett., 2000 325(1-3)93-98
     doi.org/10.1016/s0009-2614(00)00662-x

Timings for individual modules:

Sum of individual times          ...     3441.693 sec (=  57.362 min)
Startup calculation              ...       97.916 sec (=   1.632 min)   2.8 %
SCF iterations                   ...      434.418 sec (=   7.240 min)  12.6 %
Property integrals               ...      279.717 sec (=   4.662 min)   8.1 %
SCF Response                     ...     2562.296 sec (=  42.705 min)  74.4 %
Property calculations            ...       67.346 sec (=   1.122 min)   2.0 %
                             ****ORCA TERMINATED NORMALLY****
TOTAL RUN TIME: 0 days 0 hours 57 minutes 22 seconds 689 msec
