
                                 *****************
                                 * O   R   C   A *
                                 *****************

                                            #,                                       
                                            ###                                      
                                            ####                                     
                                            #####                                    
                                            ######                                   
                                           ########,                                 
                                     ,,################,,,,,                         
                               ,,#################################,,                 
                          ,,##########################################,,             
                       ,#########################################, ''#####,          
                    ,#############################################,,   '####,        
                  ,##################################################,,,,####,       
                ,###########''''           ''''###############################       
              ,#####''   ,,,,##########,,,,          '''####'''          '####       
            ,##' ,,,,###########################,,,                        '##       
           ' ,,###''''                  '''############,,,                           
         ,,##''                                '''############,,,,        ,,,,,,###''
      ,#''                                            '''#######################'''  
     '                                                          ''''####''''         
             ,#######,   #######,   ,#######,      ##                                
            ,#'     '#,  ##    ##  ,#'     '#,    #''#        ,####,   ,####,        
            ##       ##  ##   ,#'  ##            #'  '#       #'       #'  '#        
            ##       ##  #######   ##           ,######,      #####,   #    #        
            '#,     ,#'  ##    ##  '#,     ,#' ,#      #,     #,   #   #,  ,#        
             '#######'   ##     ##  '#######'  #'      '#     '####' # '####'        



                #########################################################
                #                        -***-                          #
                #          Department of theory and spectroscopy        #
                #                                                       #
                #                      Frank Neese                      #
                #                                                       #
                #     Directorship, Architecture, Infrastructure        #
                #                    SHARK, DRIVERS                     #
                #        Core code/Algorithms in most modules           #
                #                                                       #
                #        Max Planck Institute fuer Kohlenforschung      #
                #                Kaiser Wilhelm Platz 1                 #
                #                 D-45470 Muelheim/Ruhr                 #
                #                      Germany                          #
                #                                                       #
                #                  All rights reserved                  #
                #                        -***-                          #
                #########################################################


                         Program Version 6.0.0  -   RELEASE  -


 With contributions from (in alphabetic order):
   Daniel Aravena         : Magnetic Suceptibility
   Michael Atanasov       : Ab Initio Ligand Field Theory (pilot matlab implementation)
   Alexander A. Auer      : GIAO ZORA, VPT2 properties, NMR spectrum
   Ute Becker             : All parallelization in ORCA, NUMFREQ, NUMCALC
   Giovanni Bistoni       : ED, misc. LED, open-shell LED, HFLD
   Martin Brehm           : Molecular dynamics
   Dmytro Bykov           : pre 5.0 version of the SCF Hessian
   Marcos Casanova-Páez   : Triplet and SCS-CIS(D). UHF-(DLPNO)-IP/EA/STEOM-CCSD. UHF-CVS-IP/STEOM-CCSD
   Vijay G. Chilkuri      : MRCI spin determinant printing, contributions to CSF-ICE
   Pauline Colinet        : FMM embedding
   Dipayan Datta          : RHF DLPNO-CCSD density
   Achintya Kumar Dutta   : EOM-CC, STEOM-CC
   Nicolas Foglia         : Exact transition moments, OPA infrastructure, MCD improvements
   Dmitry Ganyushin       : Spin-Orbit,Spin-Spin,Magnetic field MRCI
   Miquel Garcia          : C-PCM and meta-GGA Hessian, CCSD/C-PCM, Gaussian charge scheme
   Tiago L. C. Gouveia    : GS-ROHF, GS-ROCIS
   Yang Guo               : DLPNO-NEVPT2, F12-NEVPT2, CIM, IAO-localization
   Andreas Hansen         : Spin unrestricted coupled pair/coupled cluster methods
   Ingolf Harden          : AUTO-CI MPn and infrastructure 
   Benjamin Helmich-Paris : MC-RPA, TRAH-(SCF,CASSCF), AVAS, COSX integrals, SCF dyn. polar.
   Lee Huntington         : MR-EOM, pCC
   Robert Izsak           : Overlap fitted RIJCOSX, COSX-SCS-MP3, EOM
   Riya Kayal             : Wick's Theorem for AUTO-CI, AUTO-CI UHF-CCSDT
   Emily Kempfer          : AUTO-CI, RHF CISDT and CCSDT
   Christian Kollmar      : KDIIS, OOCD, Brueckner-CCSD(T), CCSD density, CASPT2, CASPT2-K, improved NEVPT2
   Axel Koslowski         : Symmetry handling
   Simone Kossmann        : Meta GGA functionals, TD-DFT gradient, OOMP2, (MP2 Hessian; deprecated post 5.0)
   Lucas Lang             : DCDCAS
   Marvin Lechner         : AUTO-CI (C++ implementation), FIC-MRCC
   Spencer Leger          : CASSCF response
   Dagmar Lenk            : GEPOL surface, SMD, ORCA-2-JSON
   Dimitrios Liakos       : Extrapolation schemes; Compound Job, initial MDCI parallelization
   Dimitrios Manganas     : Further ROCIS development; embedding schemes. LFT, Crystal Embedding
   Dimitrios Pantazis     : SARC Basis sets
   Anastasios Papadopoulos: AUTO-CI, single reference methods and gradients
   Taras Petrenko         : pre 6.0 DFT Hessian and TD-DFT gradient, (ASA, deprecated), ECA, 1-Electron XAS/XES, NRVS
   Peter Pinski           : DLPNO-MP2, DLPNO-MP2 Gradient
   Christoph Reimann      : Effective Core Potentials
   Marius Retegan         : Local ZFS, SOC
   Christoph Riplinger    : Optimizer, TS searches, QM/MM, DLPNO-CCSD(T), (RO)-DLPNO pert. Triples
   Michael Roemelt        : Original ROCIS implementation
   Masaaki Saitow         : Open-shell DLPNO-CCSD energy and density
   Barbara Sandhoefer     : DKH picture change effects
   Kantharuban Sivalingam : CASSCF convergence/infrastructure, NEVPT2 and variants, FIC-MRCI
   Bernardo de Souza      : ESD, SOC TD-DFT
   Georgi Stoychev        : AutoAux, RI-MP2 NMR, DLPNO-MP2 response, X2C
   Van Anh Tran           : RI-MP2 g-tensors
   Willem Van den Heuvel  : Paramagnetic NMR
   Zikuan Wang            : NOTCH, Electric field optimization 
   Frank Wennmohs         : Technical directorship and infrastructure
   Hang Xu                : AUTO-CI-Response properties 


 We gratefully acknowledge several colleagues who have allowed us to
 interface, adapt or use parts of their codes:
   Stefan Grimme, W. Hujo, H. Kruse, P. Pracht,  : VdW corrections, initial TS optimization,
                  C. Bannwarth, S. Ehlert,         DFT functionals, gCP, sTDA/sTD-DF
                  L. Wittmann, M. Mueller
   Ed Valeev, F. Pavosevic, A. Kumar             : LibInt (2-el integral package), F12 methods
   Garnet Chan, S. Sharma, J. Yang, R. Olivares  : DMRG
   Ulf Ekstrom                                   : XCFun DFT Library
   Mihaly Kallay                                 : mrcc  (arbitrary order and MRCC methods)
   Frank Weinhold                                : gennbo (NPA and NBO analysis)
   Simon Mueller                                 : openCOSMO-RS
   Christopher J. Cramer and Donald G. Truhlar   : smd solvation model
   Lars Goerigk                                  : TD-DFT with DH, B97 family of functionals
   V. Asgeirsson, H. Jonsson                     : NEB implementation
   FAccTs GmbH                                   : IRC, NEB, NEB-TS, DLPNO-Multilevel, CI-OPT
                                                   MM, QMMM, 2- and 3-layer-ONIOM, Crystal-QMMM,
                                                   LR-CPCM, SF, NACMEs, symmetry and pop. for TD-DFT,
                                                   nearIR, NL-DFT gradient (VV10), updates on ESD,
                                                   ML-optimized integration grids, MBIS, APM,
                                                   GOAT, DOCKER, SOLVATOR, interface openCOSMO-RS
   S Lehtola, MJT Oliveira, MAL Marques          : LibXC Library
   Liviu Ungur et al                             : ANISO software


 Your calculation uses the libint2 library for the computation of 2-el integrals
 For citations please refer to: http://libint.valeyev.net

 Your ORCA version has been built with support for libXC version: 6.2.2
 For citations please refer to: https://libxc.gitlab.io

 This ORCA versions uses:
   CBLAS   interface :  Fast vector & matrix operations
   LAPACKE interface :  Fast linear algebra routines
   SCALAPACK package :  Parallel linear algebra routines
   Shared memory     :  Shared parallel matrices
   BLAS/LAPACK       :  OpenBLAS 0.3.27  USE64BITINT DYNAMIC_ARCH NO_AFFINITY Haswell SINGLE_THREADED
        Core in use  :  Haswell
   Copyright (c) 2011-2014, The OpenBLAS Project


NOTE: MaxCore=4096 MB was set to SCF,MP2,MDCI,CIPSI,MRCI and CIS
      => If you want to overwrite this, your respective input block should be placed after the MaxCore statement
Warning: RI is on but no J-basis has been assigned. Assigning Def2/J (nothing to worry about!)
================================================================================

----- Orbital basis set information -----
Your calculation utilizes the basis: EPR-II
   V. Barone, in Recent Advances in Density Functional Methods, Part 1 (ed. D. P. Chong), World Scientific, Singapore, 1995, p. 287.

The basis set includes element-specific modifications.

Your calculation utilizes the basis: CP(PPP) 

----- AuxJ basis set information -----
Your calculation utilizes the auxiliary basis: def2/J
   F. Weigend, Phys. Chem. Chem. Phys. 8, 1057 (2006).

================================================================================
                                        WARNINGS
                       Please study these warnings very carefully!
================================================================================


================================================================================
                                       INPUT FILE
================================================================================
NAME = system.inp
|  1> ! UKS PBE0 SmallPrint TightSCF
|  2> %basis basis "EPR-II"
|  3>  newGTO Cu "CP(PPP)" end
|  4> end
|  5> %maxcore 4096
|  6> 
|  7> %pal nprocs 16 end
|  8> 
|  9> %method
| 10> SpecialGridAtoms 29,7
| 11> SpecialGridIntAcc 9,8
| 12> end
| 13> * xyz 2 2
| 14>   Cu    4.882545    1.87822430745590    4.32570651314640
| 15>   O           4.88545849318260      4.48595984270353     10.19713175496897
| 16>   N           6.53100794472940      1.14313198785550      3.42135811034681
| 17>   N           4.72406576155691     -0.56447962597965      4.60474591480069
| 18>   N           3.90126711388724      1.35171105963968      2.66058654335264
| 19>   N           5.41335329316390      3.66150315737996      2.67001778826556
| 20>   N           5.82526626328167      2.41486434054404      6.04318510904040
| 21>   N           3.30069812322335      2.69693672813477      5.28121924606228
| 22>   N           2.11705567039763      4.84971051526381      9.37870221929227
| 23>   N           1.27121386057190      6.45771842827032     12.44934910191588
| 24>   C           7.00516828084144     -0.03433276833887      3.83464265339362
| 25>   C           6.14985705250964     -0.82543128439685      4.78918895570289
| 26>   H           6.40651307162123     -1.88514202815740      4.66583794399169
| 27>   H           6.42321590417235     -0.55811429623009      5.81216071950735
| 28>   C           3.87124073837011     -1.15199901264218      5.69651376006455
| 29>   C           2.40846627451809     -0.86044257726722      5.37695270242643
| 30>   H           2.25202054993795      0.20522654161809      5.20741174873814
| 31>   H           1.79052254494342     -1.15937283575675      6.22400086164890
| 32>   H           2.04268717019139     -1.41058486257288      4.50915950020538
| 33>   C           4.19551426098613     -0.47902941902805      7.02404085624083
| 34>   H           5.21901360183527     -0.65322913846828      7.35852626780519
| 35>   H           3.54232395481954     -0.88743476351218      7.79603832553293
| 36>   H           4.01779631061853      0.59349532877591      6.97127195862176
| 37>   C           4.08109058440459     -2.65916605881491      5.83500000775749
| 38>   H           3.91908497999396     -3.19495875533327      4.89695669206789
| 39>   H           3.37174516485841     -3.06169117970394      6.55942689369786
| 40>   H           5.08170141279834     -2.90014413439676      6.19827653456680
| 41>   C           4.28790495544535     -0.97600534622422      3.27095372801059
| 42>   H           3.67567447103241     -1.87889429353005      3.29941212123620
| 43>   H           5.16591001171008     -1.25127987229740      2.67531315656975
| 44>   C           3.57849579631383      0.07535499203679      2.45494715159609
| 45>   C           3.54637540944864      2.30717357699809      1.79864613010119
| 46>   C           2.72667948574554      2.01556561048193      0.72201568657216
| 47>   H           2.44842297972210      2.79524484881835      0.02397227559259
| 48>   C           2.28670005148168      0.71210493021415      0.55295431979468
| 49>   H           1.62728592454664      0.46126181845522     -0.26937064457566
| 50>   C           2.73535793735634     -0.27586375021438      1.41278133380910
| 51>   H           2.45667826010119     -1.31196908995346      1.26535440158922
| 52>   C           4.09923710022051      3.68822525586052      2.03219621486087
| 53>   H           4.10469512802210      4.21216070099369      1.06813476211881
| 54>   H           3.41103810615254      4.23339785718816      2.68136307185926
| 55>   C           5.88143962861213      5.02048084999107      3.11409373097309
| 56>   C           5.96059514571590      6.00781397447418      1.94945370972470
| 57>   H           6.59797972934879      5.64977062196041      1.13819598593904
| 58>   H           6.38660562164326      6.94976320817334      2.29752629258310
| 59>   H           4.97606397563588      6.23438861926768      1.53630809616990
| 60>   C           4.93489423868114      5.57477008480427      4.17074270231079
| 61>   H           3.93297703812277      5.77480778397724      3.78875442131136
| 62>   H           5.32609108991625      6.52654835980210      4.53210047733008
| 63>   H           4.85767985117562      4.90195675895690      5.02297617645067
| 64>   C           7.25817273121091      4.87301296930822      3.75378069426539
| 65>   H           8.03233748556313      4.58976517836070      3.03949257938852
| 66>   H           7.23954421070564      4.13698987232012      4.55749418519279
| 67>   H           7.55881996415635      5.82947014369949      4.18210426505700
| 68>   C           6.39408058531138      2.98190988828027      1.82548834165031
| 69>   H           5.88096684745206      2.53228831688931      0.96747475050573
| 70>   H           7.11158177932375      3.67765676856894      1.38766875022664
| 71>   C           7.14639071798661      1.84485265808831      2.47013779781981
| 72>   C           8.37957968970899      1.43782670566872      1.98572182740369
| 73>   H           8.88663237584292      2.02527228350193      1.23022128077298
| 74>   C           8.93039782085315      0.26003847841649      2.46100473330845
| 75>   H           9.89337731054404     -0.07766750885112      2.09685094198366
| 76>   C           8.21938684177776     -0.50841455005841      3.36930248859138
| 77>   H           8.59442586911274     -1.46733252830153      3.70488014058758
| 78>   C           7.09293757058618      2.25008337501641      6.39354259091869
| 79>   H           7.74239035565347      1.78171351373090      5.66349954401729
| 80>   C           7.58879950764776      2.66203842167767      7.62373321881208
| 81>   H           8.63254007253527      2.50362689297127      7.86091000321808
| 82>   C           6.73108792944627      3.27276724060929      8.51499588483770
| 83>   H           7.05697035586828      3.61890609997003      9.48903589073826
| 84>   C           5.39741765992077      3.45864647350128      8.16142009858354
| 85>   C           4.98485463073643      3.00944495709043      6.91099846593058
| 86>   C           3.62010600784007      3.16755788588967      6.50051533699760
| 87>   C           2.05934507060476      2.81792938397786      4.84494588533975
| 88>   C           1.38853141944089      3.91115139781421      6.86220641002459
| 89>   C           2.69992797102278      3.79086776210550      7.35838057521225
| 90>   C           3.08725817833932      4.27122772541626      8.66016055826595
| 91>   C           2.28146043257467      5.33075301129735     10.58312594509235
| 92>   H           3.23837110621085      5.27379854996967     11.08677939069919
| 93>   C           1.17974945498420      5.92570957809930     11.23779953247323
| 94>   C           0.02904381708849      6.94921455035589     12.89073980681446
| 95>   C          -0.27563669074686      7.54828378844410     14.09822718057851
| 96>   H           0.46205466121784      7.69904826116670     14.87576517686837
| 97>   C          -1.59247821240445      7.94846556721135     14.27947036598346
| 98>   H          -1.87915144420681      8.42164904379557     15.21022454089727
| 99>   C          -2.54649939341807      7.75015056113481     13.28779860288367
|100>   H          -3.56569511781564      8.07369726071274     13.45869852549929
|101>   C          -2.21176725433331      7.14103037299587     12.08264127324595
|102>   H          -2.96533170437749      6.99009655520651     11.31843150208257
|103>   C          -0.90769154868189      6.73728584759048     11.89099524873647
|104>   C          -0.23875460157245      6.05977902639106     10.72692562709404
|105>   C          -0.86257976072847      4.68604147318499     10.45822700804191
|106>   H          -0.33056045874398      4.17916173308239      9.65457843734605
|107>   H          -1.90749760438364      4.81722749794452     10.17244673215774
|108>   H          -0.83309623384648      4.05712057794937     11.34947509752111
|109>   C          -0.28446132178057      6.94664135117377      9.47616009351001
|110>   H           0.15107322011747      7.92756930837417      9.67291858874344
|111>   H          -1.32403897684143      7.09211855537446      9.17799641225686
|112>   H           0.26300426208706      6.47753647264369      8.65985534703991
|113>   C           2.45452171882668      6.54299559664931     13.27832805836364
|114>   H           2.42628600920237      5.77214052157853     14.05092079249228
|115>   H           2.47897131424606      7.52308457046190     13.75320672582949
|116>   H           3.35029196807786      6.42250141025334     12.67757226165270
|117>   C           4.45963613566927      4.11444115607843      9.10648356627078
|118>   H           0.64302689041217      4.38777625516108      7.48402139485854
|119>   H           1.83514441013542      2.41135448164001      3.86689410994860
|120>   C           1.07253412380000      3.42898356433480      5.61706844584686
|121>   H           0.06659109962435      3.51188969680426      5.22630898443079
|122> *
|123> 
|124> %eprnmr
|125>    GTensor 1
|126>    nuclei = all Cu { aiso, adip, aorb, fgrad }
|127>    nuclei = all N { aiso, adip, aorb, fgrad }
|128> end
|129> 
|130> 
|131>                          ****END OF INPUT****
================================================================================

                       ****************************
                       * Single Point Calculation *
                       ****************************

---------------------------------
CARTESIAN COORDINATES (ANGSTROEM)
---------------------------------
  Cu     4.882545    1.878224    4.325707
  O      4.885458    4.485960   10.197132
  N      6.531008    1.143132    3.421358
  N      4.724066   -0.564480    4.604746
  N      3.901267    1.351711    2.660587
  N      5.413353    3.661503    2.670018
  N      5.825266    2.414864    6.043185
  N      3.300698    2.696937    5.281219
  N      2.117056    4.849711    9.378702
  N      1.271214    6.457718   12.449349
  C      7.005168   -0.034333    3.834643
  C      6.149857   -0.825431    4.789189
  H      6.406513   -1.885142    4.665838
  H      6.423216   -0.558114    5.812161
  C      3.871241   -1.151999    5.696514
  C      2.408466   -0.860443    5.376953
  H      2.252021    0.205227    5.207412
  H      1.790523   -1.159373    6.224001
  H      2.042687   -1.410585    4.509160
  C      4.195514   -0.479029    7.024041
  H      5.219014   -0.653229    7.358526
  H      3.542324   -0.887435    7.796038
  H      4.017796    0.593495    6.971272
  C      4.081091   -2.659166    5.835000
  H      3.919085   -3.194959    4.896957
  H      3.371745   -3.061691    6.559427
  H      5.081701   -2.900144    6.198277
  C      4.287905   -0.976005    3.270954
  H      3.675674   -1.878894    3.299412
  H      5.165910   -1.251280    2.675313
  C      3.578496    0.075355    2.454947
  C      3.546375    2.307174    1.798646
  C      2.726679    2.015566    0.722016
  H      2.448423    2.795245    0.023972
  C      2.286700    0.712105    0.552954
  H      1.627286    0.461262   -0.269371
  C      2.735358   -0.275864    1.412781
  H      2.456678   -1.311969    1.265354
  C      4.099237    3.688225    2.032196
  H      4.104695    4.212161    1.068135
  H      3.411038    4.233398    2.681363
  C      5.881440    5.020481    3.114094
  C      5.960595    6.007814    1.949454
  H      6.597980    5.649771    1.138196
  H      6.386606    6.949763    2.297526
  H      4.976064    6.234389    1.536308
  C      4.934894    5.574770    4.170743
  H      3.932977    5.774808    3.788754
  H      5.326091    6.526548    4.532100
  H      4.857680    4.901957    5.022976
  C      7.258173    4.873013    3.753781
  H      8.032337    4.589765    3.039493
  H      7.239544    4.136990    4.557494
  H      7.558820    5.829470    4.182104
  C      6.394081    2.981910    1.825488
  H      5.880967    2.532288    0.967475
  H      7.111582    3.677657    1.387669
  C      7.146391    1.844853    2.470138
  C      8.379580    1.437827    1.985722
  H      8.886632    2.025272    1.230221
  C      8.930398    0.260038    2.461005
  H      9.893377   -0.077668    2.096851
  C      8.219387   -0.508415    3.369302
  H      8.594426   -1.467333    3.704880
  C      7.092938    2.250083    6.393543
  H      7.742390    1.781714    5.663500
  C      7.588800    2.662038    7.623733
  H      8.632540    2.503627    7.860910
  C      6.731088    3.272767    8.514996
  H      7.056970    3.618906    9.489036
  C      5.397418    3.458646    8.161420
  C      4.984855    3.009445    6.910998
  C      3.620106    3.167558    6.500515
  C      2.059345    2.817929    4.844946
  C      1.388531    3.911151    6.862206
  C      2.699928    3.790868    7.358381
  C      3.087258    4.271228    8.660161
  C      2.281460    5.330753   10.583126
  H      3.238371    5.273799   11.086779
  C      1.179749    5.925710   11.237800
  C      0.029044    6.949215   12.890740
  C     -0.275637    7.548284   14.098227
  H      0.462055    7.699048   14.875765
  C     -1.592478    7.948466   14.279470
  H     -1.879151    8.421649   15.210225
  C     -2.546499    7.750151   13.287799
  H     -3.565695    8.073697   13.458699
  C     -2.211767    7.141030   12.082641
  H     -2.965332    6.990097   11.318432
  C     -0.907692    6.737286   11.890995
  C     -0.238755    6.059779   10.726926
  C     -0.862580    4.686041   10.458227
  H     -0.330560    4.179162    9.654578
  H     -1.907498    4.817227   10.172447
  H     -0.833096    4.057121   11.349475
  C     -0.284461    6.946641    9.476160
  H      0.151073    7.927569    9.672919
  H     -1.324039    7.092119    9.177996
  H      0.263004    6.477536    8.659855
  C      2.454522    6.542996   13.278328
  H      2.426286    5.772141   14.050921
  H      2.478971    7.523085   13.753207
  H      3.350292    6.422501   12.677572
  C      4.459636    4.114441    9.106484
  H      0.643027    4.387776    7.484021
  H      1.835144    2.411354    3.866894
  C      1.072534    3.428984    5.617068
  H      0.066591    3.511890    5.226309

----------------------------
CARTESIAN COORDINATES (A.U.)
----------------------------
  NO LB      ZA    FRAG     MASS         X           Y           Z
   0 Cu   29.0000    0    63.550    9.226673    3.549330    8.174401
   1 O     8.0000    0    15.999    9.232179    8.477236   19.269786
   2 N     7.0000    0    14.007   12.341816    2.160206    6.465430
   3 N     7.0000    0    14.007    8.927191   -1.066712    8.701709
   4 N     7.0000    0    14.007    7.372326    2.554364    5.027780
   5 N     7.0000    0    14.007   10.229755    6.919238    5.045602
   6 N     7.0000    0    14.007   11.008158    4.563432   11.419965
   7 N     7.0000    0    14.007    6.237416    5.096472    9.980058
   8 N     7.0000    0    14.007    4.000655    9.164625   17.723179
   9 N     7.0000    0    14.007    2.402246   12.203319   23.525860
  10 C     6.0000    0    12.011   13.237850   -0.064880    7.246424
  11 C     6.0000    0    12.011   11.621546   -1.559839    9.050256
  12 H     1.0000    0     1.008   12.106555   -3.562402    8.817156
  13 H     1.0000    0     1.008   12.138119   -1.054683   10.983392
  14 C     6.0000    0    12.011    7.315585   -2.176963   10.764851
  15 C     6.0000    0    12.011    4.551342   -1.626001   10.160968
  16 H     1.0000    0     1.008    4.255702    0.387822    9.840582
  17 H     1.0000    0     1.008    3.383597   -2.190897   11.761657
  18 H     1.0000    0     1.008    3.860119   -2.665619    8.521077
  19 C     6.0000    0    12.011    7.928373   -0.905234   13.273514
  20 H     1.0000    0     1.008    9.862506   -1.234424   13.905599
  21 H     1.0000    0     1.008    6.694022   -1.677009   14.732377
  22 H     1.0000    0     1.008    7.592535    1.121544   13.173795
  23 C     6.0000    0    12.011    7.712144   -5.025096   11.026552
  24 H     1.0000    0     1.008    7.405997   -6.037597    9.253907
  25 H     1.0000    0     1.008    6.371675   -5.785758   12.395520
  26 H     1.0000    0     1.008    9.603024   -5.480478   11.713045
  27 C     6.0000    0    12.011    8.102966   -1.844383    6.181207
  28 H     1.0000    0     1.008    6.946018   -3.550596    6.234985
  29 H     1.0000    0     1.008    9.762155   -2.364576    5.055609
  30 C     6.0000    0    12.011    6.762377    0.142400    4.639178
  31 C     6.0000    0    12.011    6.701678    4.359926    3.398949
  32 C     6.0000    0    12.011    5.152677    3.808867    1.364412
  33 H     1.0000    0     1.008    4.626849    5.282247    0.045301
  34 C     6.0000    0    12.011    4.321237    1.345683    1.044932
  35 H     1.0000    0     1.008    3.075125    0.871659   -0.509037
  36 C     6.0000    0    12.011    5.169077   -0.521307    2.669770
  37 H     1.0000    0     1.008    4.642449   -2.479262    2.391173
  38 C     6.0000    0    12.011    7.746435    6.969736    3.840294
  39 H     1.0000    0     1.008    7.756750    7.959830    2.018482
  40 H     1.0000    0     1.008    6.445928    7.999963    5.067042
  41 C     6.0000    0    12.011   11.114310    9.487334    5.884784
  42 C     6.0000    0    12.011   11.263892   11.353123    3.683934
  43 H     1.0000    0     1.008   12.468375   10.676519    2.150879
  44 H     1.0000    0     1.008   12.068936   13.133149    4.341695
  45 H     1.0000    0     1.008    9.403398   11.781287    2.903202
  46 C     6.0000    0    12.011    9.325599   10.534789    7.881561
  47 H     1.0000    0     1.008    7.432249   10.912805    7.159708
  48 H     1.0000    0     1.008   10.064854   12.333389    8.564429
  49 H     1.0000    0     1.008    9.179685    9.263356    9.492049
  50 C     6.0000    0    12.011   13.715959    9.208660    7.093617
  51 H     1.0000    0     1.008   15.178918    8.673399    5.743809
  52 H     1.0000    0     1.008   13.680756    7.817778    8.612416
  53 H     1.0000    0     1.008   14.284100   11.016102    7.903032
  54 C     6.0000    0    12.011   12.083061    5.634993    3.449673
  55 H     1.0000    0     1.008   11.113417    4.785331    1.828262
  56 H     1.0000    0     1.008   13.438942    6.949764    2.622314
  57 C     6.0000    0    12.011   13.504721    3.486266    4.667884
  58 C     6.0000    0    12.011   15.835111    2.717099    3.752470
  59 H     1.0000    0     1.008   16.793301    3.827210    2.324781
  60 C     6.0000    0    12.011   16.876006    0.491402    4.650625
  61 H     1.0000    0     1.008   18.695774   -0.146770    3.962474
  62 C     6.0000    0    12.011   15.532390   -0.960764    6.367059
  63 H     1.0000    0     1.008   16.241111   -2.772857    7.001209
  64 C     6.0000    0    12.011   13.403709    4.252041   12.082045
  65 H     1.0000    0     1.008   14.630997    3.366951   10.702463
  66 C     6.0000    0    12.011   14.340753    5.030524   14.406768
  67 H     1.0000    0     1.008   16.313137    4.731169   14.854967
  68 C     6.0000    0    12.011   12.719913    6.184634   16.091010
  69 H     1.0000    0     1.008   13.335741    6.838741   17.931679
  70 C     6.0000    0    12.011   10.199641    6.535895   15.422849
  71 C     6.0000    0    12.011    9.420010    5.687027   13.059894
  72 C     6.0000    0    12.011    6.841009    5.985817   12.284194
  73 C     6.0000    0    12.011    3.891598    5.325115    9.155621
  74 C     6.0000    0    12.011    2.623944    7.391005   12.967691
  75 C     6.0000    0    12.011    5.102124    7.163702   13.905324
  76 C     6.0000    0    12.011    5.834072    8.071451   16.365332
  77 C     6.0000    0    12.011    4.311335   10.073663   19.999210
  78 H     1.0000    0     1.008    6.119635    9.966035   20.950977
  79 C     6.0000    0    12.011    2.229403   11.197968   21.236363
  80 C     6.0000    0    12.011    0.054885   13.132112   24.359968
  81 C     6.0000    0    12.011   -0.520878   14.264189   26.641788
  82 H     1.0000    0     1.008    0.873157   14.549093   28.111122
  83 C     6.0000    0    12.011   -3.009348   15.020423   26.984288
  84 H     1.0000    0     1.008   -3.551082   15.914610   28.743159
  85 C     6.0000    0    12.011   -4.812186   14.645662   25.110300
  86 H     1.0000    0     1.008   -6.738187   15.257077   25.433254
  87 C     6.0000    0    12.011   -4.179634   13.494592   22.832883
  88 H     1.0000    0     1.008   -5.603665   13.209368   21.388736
  89 C     6.0000    0    12.011   -1.715288   12.731625   22.470724
  90 C     6.0000    0    12.011   -0.451181   11.451323   20.270952
  91 C     6.0000    0    12.011   -1.630040    8.855335   19.763185
  92 H     1.0000    0     1.008   -0.624669    7.897471   18.244509
  93 H     1.0000    0     1.008   -3.604648    9.103241   19.223138
  94 H     1.0000    0     1.008   -1.574324    7.666847   21.447400
  95 C     6.0000    0    12.011   -0.537554   13.127250   17.907347
  96 H     1.0000    0     1.008    0.285487   14.980935   18.279167
  97 H     1.0000    0     1.008   -2.502071   13.402162   17.343900
  98 H     1.0000    0     1.008    0.497006   12.240770   16.364755
  99 C     6.0000    0    12.011    4.638374   12.364470   25.092404
 100 H     1.0000    0     1.008    4.585016   10.907765   26.552392
 101 H     1.0000    0     1.008    4.684577   14.216570   25.989794
 102 H     1.0000    0     1.008    6.331134   12.136769   23.957140
 103 C     6.0000    0    12.011    8.427491    7.775167   17.208760
 104 H     1.0000    0     1.008    1.215145    8.291695   14.142751
 105 H     1.0000    0     1.008    3.467920    4.556800    7.307371
 106 C     6.0000    0    12.011    2.026796    6.479840   10.614721
 107 H     1.0000    0     1.008    0.125839    6.636510    9.876293

--------------------------------
INTERNAL COORDINATES (ANGSTROEM)
--------------------------------
 Cu     0   0   0     0.000000000000     0.00000000     0.00000000
 O      1   0   0     6.424478771118     0.00000000     0.00000000
 N      1   2   0     2.018820653780   123.83645270     0.00000000
 N      1   2   3     2.463692586975   107.39555656    83.38685293
 N      1   2   4     2.003184216118   150.06465241    97.37401117
 N      1   2   4     2.490611582398   108.47067240   189.13705647
 N      1   2   4     2.031363737175    28.34089930   278.51973971
 N      1   2   7     2.021270430226    53.40958838   180.45332320
 N      2   1   3     2.909672772987    78.06790314   176.96873020
 N      9   2   1     3.567913969437    92.28238030   180.30816708
 C      3   1   2     1.334936474123   118.19770297    75.10409357
 C      4   1   2     1.461162485395    97.38861608   274.95639437
 H     12   4   1     1.097303351256   112.73804177   195.80853652
 H     12   4   1     1.092087296642   108.58890365    78.10809876
 C      4   1   2     1.504807820896   120.37985880    37.22367947
 C     15   4   1     1.525396196621   108.47260434    67.60132230
 H     16  15   4     1.090353186203   110.91446290   306.43484621
 H     16  15   4     1.090277183290   109.16841134   187.66447905
 H     16  15   4     1.090649315346   113.07182173    68.87919753
 C     15   4   1     1.523275937735   109.82530258   310.26538070
 H     20  15   4     1.090768964319   113.35578766   296.20709379
 H     20  15   4     1.090611110372   108.90241739   177.77407587
 H     20  15   4     1.088428941682   110.99737696    59.26222694
 C     15   4   1     1.527994732893   111.90253395   188.91852600
 H     24  15   4     1.092357492588   112.68154560   305.02446790
 H     24  15   4     1.090867411857   109.56336102   185.98903394
 H     24  15   4     1.091449631335   111.95327036    67.35401602
 C      4   1   2     1.462392308771   101.23847740   161.89807438
 H     28   4   1     1.091258217544   112.10925331   210.11765866
 H     28   4   1     1.096109772732   109.11060755    94.46307312
 C      5   1   2     1.332499040974   119.91428949   256.93430423
 C      5   1   2     1.334840072800   118.61047321    74.74714338
 C     32   5   1     1.384221703848   120.58958314   188.03917790
 H     33  32   5     1.082862411135   120.12361982   180.37701756
 C     33  32   5     1.386063993225   118.74764552   359.71502312
 H     35  33  32     1.083497856272   120.23011612   178.70043457
 C     35  33  32     1.384441586378   119.50311693   356.31606260
 H     37  35  33     1.083010312922   120.98289660   183.87519574
 C      6   1   2     1.460969472167    96.40856155   247.76878714
 H     39   6   1     1.097247750236   112.82025022   195.24337158
 H     39   6   1     1.091901382406   108.45128614    77.29077316
 C      6   1   2     1.504369844599   121.12324042     9.69819730
 C     42   6   1     1.528881510675   112.00081444   187.90217931
 H     43  42   6     1.092059176114   112.60509286   303.93644496
 H     43  42   6     1.090828954238   109.56028155   184.99894751
 H     43  42   6     1.091479268022   112.06732243    66.28232233
 C     42   6   1     1.523053439528   109.88788308   309.21124545
 H     47  42   6     1.090764963081   113.24346839   294.46016586
 H     47  42   6     1.090640317768   108.93802457   176.04734151
 H     47  42   6     1.088550287088   111.24154588    57.37360624
 C     42   6   1     1.525234481196   108.50087241    66.81010843
 H     51  42   6     1.090764818378   113.02315793    67.70205989
 H     51  42   6     1.089968988813   111.04602499   305.31400914
 H     51  42   6     1.090256926792   109.19948114   186.44622393
 C      6   1   2     1.461814974328   101.19648266   134.73579324
 H     55   6   1     1.096190032809   109.19879201    93.90175088
 H     55   6   1     1.091126793491   112.11986544   209.58003338
 C      3   1   2     1.332639463478   120.33650832   257.33696976
 C     58   3   1     1.386031745060   120.37719727   170.59602879
 H     59  58   3     1.083040077463   120.07048708   181.52088296
 C     59  58   3     1.384369734752   118.93772457     2.95882836
 H     61  59  58     1.083504875456   120.22568659   180.01452097
 C     11   3   1     1.384059868091   120.63999028   188.01808157
 H     63  11   3     1.082954441120   120.19397279   180.36462195
 C      7   1   2     1.325478658852   129.38165154   179.19935108
 H     65   7   1     1.083569147457   116.67149823     1.44778252
 C     65   7   1     1.388868245030   122.59566853   180.78993561
 H     67  65   7     1.082008043538   119.67835000   179.97902266
 C     67  65   7     1.379495553275   118.78973918   359.68248547
 H     69  67  65     1.083865950616   122.34770427   180.15833514
 C     69  67  65     1.392208071253   119.38269724     0.05757469
 C      7   1   2     1.346446376239   111.83421310   359.70344050
 C      8   1   2     1.345432506019   112.60039683     0.35068030
 C      8   1   2     1.321336849289   128.04161248   179.73237600
 C     73   8   1     2.379848080629    91.39904830   179.29854377
 C     73   8   1     1.403985608248   123.60304327   179.51830068
 C      9   2   1     1.338744696795    53.66011363     0.20539314
 C      9   2   1     1.307313015344    70.56162326   179.55178675
 H     78   9   2     1.082861321341   121.35135808   358.49504620
 C     10   9   2     1.326367789629    18.09366844   181.24346731
 C     10   9   2     1.406904619839   129.55079845   181.69543121
 C     81  10   9     1.381933399871   128.33284480   178.74218303
 H     82  81  10     1.082351048724   122.53482301   359.44128990
 C     82  81  10     1.388188078567   116.62765238   179.83720447
 H     84  82  81     1.082768432521   119.29875195   179.93271396
 C     84  82  81     1.390287071503   121.11039966     0.00000000
 H     86  84  82     1.082889271804   119.38360644   180.02738880
 C     86  84  82     1.391214288927   121.01370509     0.14881631
 H     88  86  84     1.083815930896   120.29782828   179.85593379
 C     88  86  84     1.378532294353   118.44213596   359.94542093
 C     90  88  86     1.503845143627   131.32666025   179.80225126
 C     91  90  88     1.532485445988   111.00795023   298.53637589
 H     92  91  90     1.088954835515   110.35137462   183.52200753
 H     92  91  90     1.091207330971   109.14447512    63.39431514
 H     92  91  90     1.091207554877   111.25044229   304.31435608
 C     91  90  88     1.533958378638   110.94286289    62.83580820
 H     96  91  90     1.091157138019   111.15077179    55.28778967
 H     96  91  90     1.091231826269   109.16287238   296.21160513
 H     96  91  90     1.089096594288   110.31282958   176.02184629
 C     10   9   2     1.447306392264   109.00641734     0.91911782
 H    100  10   9     1.091748292826   110.03439236   257.95392978
 H    100  10   9     1.089349314095   108.72645426   138.51340484
 H    100  10   9     1.085279095754   110.56235856    19.10317106
 C      2   1   3     1.228358370420    20.87169972   176.83541451
 H     75  73   8     1.081481452826   150.63050757   180.07363038
 H     74   8   1     1.082660779151   117.28611960     1.75608753
 C     75  73   8     1.372118311346    88.17979622   359.96035763
 H    107  75  73     1.082352877473   120.98013771   179.92747021

---------------------------
INTERNAL COORDINATES (A.U.)
---------------------------
 Cu     0   0   0     0.000000000000     0.00000000     0.00000000
 O      1   0   0    12.140505430604     0.00000000     0.00000000
 N      1   2   0     3.815018149148   123.83645270     0.00000000
 N      1   2   3     4.655704267554   107.39555656    83.38685293
 N      1   2   4     3.785469564257   150.06465241    97.37401117
 N      1   2   4     4.706573796705   108.47067240   189.13705647
 N      1   2   4     3.838721141640    28.34089930   278.51973971
 N      1   2   7     3.819647555720    53.40958838   180.45332320
 N      2   1   3     5.498484680272    78.06790314   176.96873020
 N      9   2   1     6.742380271629    92.28238030   180.30816708
 C      3   1   2     2.522664342274   118.19770297    75.10409357
 C      4   1   2     2.761196934556    97.38861608   274.95639437
 H     12   4   1     2.073602819708   112.73804177   195.80853652
 H     12   4   1     2.063745904987   108.58890365    78.10809876
 C      4   1   2     2.843674665676   120.37985880    37.22367947
 C     15   4   1     2.882581057338   108.47260434    67.60132230
 H     16  15   4     2.060468911172   110.91446290   306.43484621
 H     16  15   4     2.060325286482   109.16841134   187.66447905
 H     16  15   4     2.061028514152   113.07182173    68.87919753
 C     15   4   1     2.878574348710   109.82530258   310.26538070
 H     20  15   4     2.061254617943   113.35578766   296.20709379
 H     20  15   4     2.060956317215   108.90241739   177.77407587
 H     20  15   4     2.056832616013   110.99737696    59.26222694
 C     15   4   1     2.887491579243   111.90253395   188.91852600
 H     24  15   4     2.064256501328   112.68154560   305.02446790
 H     24  15   4     2.061440656829   109.56336102   185.98903394
 H     24  15   4     2.062540892192   111.95327036    67.35401602
 C      4   1   2     2.763520963930   101.23847740   161.89807438
 H     28   4   1     2.062179172549   112.10925331   210.11765866
 H     28   4   1     2.071347283177   109.11060755    94.46307312
 C      5   1   2     2.518058261154   119.91428949   256.93430423
 C      5   1   2     2.522482170175   118.61047321    74.74714338
 C     32   5   1     2.615799928903   120.58958314   188.03917790
 H     33  32   5     2.046313397763   120.12361982   180.37701756
 C     33  32   5     2.619281351285   118.74764552   359.71502312
 H     35  33  32     2.047514215044   120.23011612   178.70043457
 C     35  33  32     2.616215446667   119.50311693   356.31606260
 H     37  35  33     2.046592891634   120.98289660   183.87519574
 C      6   1   2     2.760832192415    96.40856155   247.76878714
 H     39   6   1     2.073497749007   112.82025022   195.24337158
 H     39   6   1     2.063394577997   108.45128614    77.29077316
 C      6   1   2     2.842847010422   121.12324042     9.69819730
 C     42   6   1     2.889167346391   112.00081444   187.90217931
 H     43  42   6     2.063692764891   112.60509286   303.93644496
 H     43  42   6     2.061367982462   109.56028155   184.99894751
 H     43  42   6     2.062596897415   112.06732243    66.28232233
 C     42   6   1     2.878153888035   109.88788308   309.21124545
 H     47  42   6     2.061247056701   113.24346839   294.46016586
 H     47  42   6     2.061011511194   108.93802457   176.04734151
 H     47  42   6     2.057061925598   111.24154588    57.37360624
 C     42   6   1     2.882275459475   108.50087241    66.81010843
 H     51  42   6     2.061246783252   113.02315793    67.70205989
 H     51  42   6     2.059742883324   111.04602499   305.31400914
 H     51  42   6     2.060287007248   109.19948114   186.44622393
 C      6   1   2     2.762429959945   101.19648266   134.73579324
 H     55   6   1     2.071498952742   109.19879201    93.90175088
 H     55   6   1     2.061930817083   112.11986544   209.58003338
 C      3   1   2     2.518323621228   120.33650832   257.33696976
 C     58   3   1     2.619220411085   120.37719727   170.59602879
 H     59  58   3     2.046649138466   120.07048708   181.52088296
 C     59  58   3     2.616079666770   118.93772457     2.95882836
 H     61  59  58     2.047527479381   120.22568659   180.01452097
 C     11   3   1     2.615494103642   120.63999028   188.01808157
 H     63  11   3     2.046487309231   120.19397279   180.36462195
 C      7   1   2     2.504791661587   129.38165154   179.19935108
 H     65   7   1     2.047648935861   116.67149823     1.44778252
 C     65   7   1     2.624580619207   122.59566853   180.78993561
 H     67  65   7     2.044698876986   119.67835000   179.97902266
 C     67  65   7     2.606868798652   118.78973918   359.68248547
 H     69  67  65     2.048209812547   122.34770427   180.15833514
 C     69  67  65     2.630891976103   119.38269724     0.05757469
 C      7   1   2     2.544414905102   111.83421310   359.70344050
 C      8   1   2     2.542498968051   112.60039683     0.35068030
 C      8   1   2     2.496964775815   128.04161248   179.73237600
 C     73   8   1     4.497261112727    91.39904830   179.29854377
 C     73   8   1     2.653148295555   123.60304327   179.51830068
 C      9   2   1     2.529860840182    53.66011363     0.20539314
 C      9   2   1     2.470463570310    70.56162326   179.55178675
 H     78   9   2     2.046311338350   121.35135808   358.49504620
 C     10   9   2     2.506471875254    18.09366844   181.24346731
 C     10   9   2     2.658664428044   129.55079845   181.69543121
 C     81  10   9     2.611475661074   128.33284480   178.74218303
 H     82  81  10     2.045347062850   122.53482301   359.44128990
 C     82  81  10     2.623295290865   116.62765238   179.83720447
 H     84  82  81     2.046135803920   119.29875195   179.93271396
 C     84  82  81     2.627261812671   121.11039966     0.00000000
 H     86  84  82     2.046364157071   119.38360644   180.02738880
 C     86  84  82     2.629013999670   121.01370509     0.14881631
 H     88  86  84     2.048115288975   120.29782828   179.85593379
 C     88  86  84     2.605048503094   118.44213596   359.94542093
 C     90  88  86     2.841855469283   131.32666025   179.80225126
 C     91  90  88     2.895977797138   111.00795023   298.53637589
 H     92  91  90     2.057826411333   110.35137462   183.52200753
 H     92  91  90     2.062083010863   109.14447512    63.39431514
 H     92  91  90     2.062083433984   111.25044229   304.31435608
 C     91  90  88     2.898761236459   110.94286289    62.83580820
 H     96  91  90     2.061988159930   111.15077179    55.28778967
 H     96  91  90     2.062129300267   109.16287238   296.21160513
 H     96  91  90     2.058094296591   110.31282958   176.02184629
 C     10   9   2     2.735012713252   109.00641734     0.91911782
 H    100  10   9     2.063105280617   110.03439236   257.95392978
 H    100  10   9     2.058571867815   108.72645426   138.51340484
 H    100  10   9     2.050880269845   110.56235856    19.10317106
 C      2   1   3     2.321260914403    20.87169972   176.83541451
 H     75  73   8     2.043703764757   150.63050757   180.07363038
 H     74   8   1     2.045932368533   117.28611960     1.75608753
 C     75  73   8     2.592927831783    88.17979622   359.96035763
 H    107  75  73     2.045350518686   120.98013771   179.92747021

---------------------
BASIS SET INFORMATION
---------------------
There are 5 groups of distinct atoms

 Group   1 Type Cu  : 17s11p5d1f contracted to 17s7p3d1f pattern {11111111111111111/3311111/311/1}
 Group   2 Type O   : 10s5p1d contracted to 6s2p1d pattern {511111/41/1}
 Group   3 Type N   : 10s5p1d contracted to 6s2p1d pattern {511111/41/1}
 Group   4 Type C   : 10s5p1d contracted to 6s2p1d pattern {511111/41/1}
 Group   5 Type H   : 6s1p contracted to 4s1p pattern {3111/1}

Atom   0Cu   basis set group =>   1
Atom   1O    basis set group =>   2
Atom   2N    basis set group =>   3
Atom   3N    basis set group =>   3
Atom   4N    basis set group =>   3
Atom   5N    basis set group =>   3
Atom   6N    basis set group =>   3
Atom   7N    basis set group =>   3
Atom   8N    basis set group =>   3
Atom   9N    basis set group =>   3
Atom  10C    basis set group =>   4
Atom  11C    basis set group =>   4
Atom  12H    basis set group =>   5
Atom  13H    basis set group =>   5
Atom  14C    basis set group =>   4
Atom  15C    basis set group =>   4
Atom  16H    basis set group =>   5
Atom  17H    basis set group =>   5
Atom  18H    basis set group =>   5
Atom  19C    basis set group =>   4
Atom  20H    basis set group =>   5
Atom  21H    basis set group =>   5
Atom  22H    basis set group =>   5
Atom  23C    basis set group =>   4
Atom  24H    basis set group =>   5
Atom  25H    basis set group =>   5
Atom  26H    basis set group =>   5
Atom  27C    basis set group =>   4
Atom  28H    basis set group =>   5
Atom  29H    basis set group =>   5
Atom  30C    basis set group =>   4
Atom  31C    basis set group =>   4
Atom  32C    basis set group =>   4
Atom  33H    basis set group =>   5
Atom  34C    basis set group =>   4
Atom  35H    basis set group =>   5
Atom  36C    basis set group =>   4
Atom  37H    basis set group =>   5
Atom  38C    basis set group =>   4
Atom  39H    basis set group =>   5
Atom  40H    basis set group =>   5
Atom  41C    basis set group =>   4
Atom  42C    basis set group =>   4
Atom  43H    basis set group =>   5
Atom  44H    basis set group =>   5
Atom  45H    basis set group =>   5
Atom  46C    basis set group =>   4
Atom  47H    basis set group =>   5
Atom  48H    basis set group =>   5
Atom  49H    basis set group =>   5
Atom  50C    basis set group =>   4
Atom  51H    basis set group =>   5
Atom  52H    basis set group =>   5
Atom  53H    basis set group =>   5
Atom  54C    basis set group =>   4
Atom  55H    basis set group =>   5
Atom  56H    basis set group =>   5
Atom  57C    basis set group =>   4
Atom  58C    basis set group =>   4
Atom  59H    basis set group =>   5
Atom  60C    basis set group =>   4
Atom  61H    basis set group =>   5
Atom  62C    basis set group =>   4
Atom  63H    basis set group =>   5
Atom  64C    basis set group =>   4
Atom  65H    basis set group =>   5
Atom  66C    basis set group =>   4
Atom  67H    basis set group =>   5
Atom  68C    basis set group =>   4
Atom  69H    basis set group =>   5
Atom  70C    basis set group =>   4
Atom  71C    basis set group =>   4
Atom  72C    basis set group =>   4
Atom  73C    basis set group =>   4
Atom  74C    basis set group =>   4
Atom  75C    basis set group =>   4
Atom  76C    basis set group =>   4
Atom  77C    basis set group =>   4
Atom  78H    basis set group =>   5
Atom  79C    basis set group =>   4
Atom  80C    basis set group =>   4
Atom  81C    basis set group =>   4
Atom  82H    basis set group =>   5
Atom  83C    basis set group =>   4
Atom  84H    basis set group =>   5
Atom  85C    basis set group =>   4
Atom  86H    basis set group =>   5
Atom  87C    basis set group =>   4
Atom  88H    basis set group =>   5
Atom  89C    basis set group =>   4
Atom  90C    basis set group =>   4
Atom  91C    basis set group =>   4
Atom  92H    basis set group =>   5
Atom  93H    basis set group =>   5
Atom  94H    basis set group =>   5
Atom  95C    basis set group =>   4
Atom  96H    basis set group =>   5
Atom  97H    basis set group =>   5
Atom  98H    basis set group =>   5
Atom  99C    basis set group =>   4
Atom 100H    basis set group =>   5
Atom 101H    basis set group =>   5
Atom 102H    basis set group =>   5
Atom 103C    basis set group =>   4
Atom 104H    basis set group =>   5
Atom 105H    basis set group =>   5
Atom 106C    basis set group =>   4
Atom 107H    basis set group =>   5
---------------------------------
AUXILIARY/J BASIS SET INFORMATION
---------------------------------
There are 5 groups of distinct atoms

 Group   1 Type Cu  : 19s5p5d3f3g contracted to 8s5p4d3f3g pattern {121111111/11111/2111/111/111}
 Group   2 Type O   : 12s5p4d2f1g contracted to 6s4p3d1f1g pattern {711111/2111/211/2/1}
 Group   3 Type N   : 12s5p4d2f1g contracted to 6s4p3d1f1g pattern {711111/2111/211/2/1}
 Group   4 Type C   : 12s5p4d2f1g contracted to 6s4p3d1f1g pattern {711111/2111/211/2/1}
 Group   5 Type H   : 5s2p1d contracted to 3s1p1d pattern {311/2/1}

Atom   0Cu   basis set group =>   1
Atom   1O    basis set group =>   2
Atom   2N    basis set group =>   3
Atom   3N    basis set group =>   3
Atom   4N    basis set group =>   3
Atom   5N    basis set group =>   3
Atom   6N    basis set group =>   3
Atom   7N    basis set group =>   3
Atom   8N    basis set group =>   3
Atom   9N    basis set group =>   3
Atom  10C    basis set group =>   4
Atom  11C    basis set group =>   4
Atom  12H    basis set group =>   5
Atom  13H    basis set group =>   5
Atom  14C    basis set group =>   4
Atom  15C    basis set group =>   4
Atom  16H    basis set group =>   5
Atom  17H    basis set group =>   5
Atom  18H    basis set group =>   5
Atom  19C    basis set group =>   4
Atom  20H    basis set group =>   5
Atom  21H    basis set group =>   5
Atom  22H    basis set group =>   5
Atom  23C    basis set group =>   4
Atom  24H    basis set group =>   5
Atom  25H    basis set group =>   5
Atom  26H    basis set group =>   5
Atom  27C    basis set group =>   4
Atom  28H    basis set group =>   5
Atom  29H    basis set group =>   5
Atom  30C    basis set group =>   4
Atom  31C    basis set group =>   4
Atom  32C    basis set group =>   4
Atom  33H    basis set group =>   5
Atom  34C    basis set group =>   4
Atom  35H    basis set group =>   5
Atom  36C    basis set group =>   4
Atom  37H    basis set group =>   5
Atom  38C    basis set group =>   4
Atom  39H    basis set group =>   5
Atom  40H    basis set group =>   5
Atom  41C    basis set group =>   4
Atom  42C    basis set group =>   4
Atom  43H    basis set group =>   5
Atom  44H    basis set group =>   5
Atom  45H    basis set group =>   5
Atom  46C    basis set group =>   4
Atom  47H    basis set group =>   5
Atom  48H    basis set group =>   5
Atom  49H    basis set group =>   5
Atom  50C    basis set group =>   4
Atom  51H    basis set group =>   5
Atom  52H    basis set group =>   5
Atom  53H    basis set group =>   5
Atom  54C    basis set group =>   4
Atom  55H    basis set group =>   5
Atom  56H    basis set group =>   5
Atom  57C    basis set group =>   4
Atom  58C    basis set group =>   4
Atom  59H    basis set group =>   5
Atom  60C    basis set group =>   4
Atom  61H    basis set group =>   5
Atom  62C    basis set group =>   4
Atom  63H    basis set group =>   5
Atom  64C    basis set group =>   4
Atom  65H    basis set group =>   5
Atom  66C    basis set group =>   4
Atom  67H    basis set group =>   5
Atom  68C    basis set group =>   4
Atom  69H    basis set group =>   5
Atom  70C    basis set group =>   4
Atom  71C    basis set group =>   4
Atom  72C    basis set group =>   4
Atom  73C    basis set group =>   4
Atom  74C    basis set group =>   4
Atom  75C    basis set group =>   4
Atom  76C    basis set group =>   4
Atom  77C    basis set group =>   4
Atom  78H    basis set group =>   5
Atom  79C    basis set group =>   4
Atom  80C    basis set group =>   4
Atom  81C    basis set group =>   4
Atom  82H    basis set group =>   5
Atom  83C    basis set group =>   4
Atom  84H    basis set group =>   5
Atom  85C    basis set group =>   4
Atom  86H    basis set group =>   5
Atom  87C    basis set group =>   4
Atom  88H    basis set group =>   5
Atom  89C    basis set group =>   4
Atom  90C    basis set group =>   4
Atom  91C    basis set group =>   4
Atom  92H    basis set group =>   5
Atom  93H    basis set group =>   5
Atom  94H    basis set group =>   5
Atom  95C    basis set group =>   4
Atom  96H    basis set group =>   5
Atom  97H    basis set group =>   5
Atom  98H    basis set group =>   5
Atom  99C    basis set group =>   4
Atom 100H    basis set group =>   5
Atom 101H    basis set group =>   5
Atom 102H    basis set group =>   5
Atom 103C    basis set group =>   4
Atom 104H    basis set group =>   5
Atom 105H    basis set group =>   5
Atom 106C    basis set group =>   4
Atom 107H    basis set group =>   5


           ************************************************************
           *        Program running with 16 parallel MPI-processes    *
           *              working on a common directory               *
           ************************************************************
------------------------------------------------------------------------------
                             ORCA STARTUP CALCULATIONS
                           -- RI-GTO INTEGRALS CHOSEN --
------------------------------------------------------------------------------
------------------------------------------------------------------------------
                   ___                                                        
                  /   \      - P O W E R E D   B Y -                         
                 /     \                                                     
                 |  |  |   _    _      __       _____    __    __             
                 |  |  |  | |  | |    /  \     |  _  \  |  |  /  |          
                  \  \/   | |  | |   /    \    | | | |  |  | /  /          
                 / \  \   | |__| |  /  /\  \   | |_| |  |  |/  /          
                |  |  |   |  __  | /  /__\  \  |    /   |      \           
                |  |  |   | |  | | |   __   |  |    \   |  |\   \          
                \     /   | |  | | |  |  |  |  | |\  \  |  | \   \       
                 \___/    |_|  |_| |__|  |__|  |_| \__\ |__|  \__/        
                                                                              
                      - O R C A' S   B I G   F R I E N D -                    
                                      &                                       
                       - I N T E G R A L  F E E D E R -                       
                                                                              
 v1 FN, 2020, v2 2021, v3 2022-2024                                           
------------------------------------------------------------------------------


----------------------
SHARK INTEGRAL PACKAGE
----------------------

Number of atoms                             ...    108
Number of basis functions                   ...   1359
Number of shells                            ...    783
Maximum angular momentum                    ...      3
Integral batch strategy                     ... SHARK/LIBINT Hybrid
RI-J (if used) integral strategy            ... SPLIT-RIJ (Revised 2003 algorithm where possible)
Printlevel                                  ...      1
Contraction scheme used                     ... SEGMENTED contraction
Prescreening option                         ... SCHWARTZ
   Thresh                                   ... 2.500e-11
   Tcut                                     ... 2.500e-12
   Tpresel                                  ... 2.500e-12 
Coulomb Range Separation                    ... NOT USED
Exchange Range Separation                   ... NOT USED
Multipole approximations                    ... NOT USED
Finite Nucleus Model                        ... NOT USED
CABS basis                                  ... NOT available
Auxiliary Coulomb fitting basis             ... AVAILABLE
   # of basis functions in Aux-J            ...   3358
   # of shells in Aux-J                     ...   1108
   Maximum angular momentum in Aux-J        ...      4
Auxiliary J/K fitting basis                 ... NOT available
Auxiliary Correlation fitting basis         ... NOT available
Auxiliary 'external' fitting basis          ... NOT available

Checking pre-screening integrals            ... done (  0.0 sec) Dimension = 783
Check shell pair data                       ... done (  0.0 sec)
Shell pair information
Shell pair cut-off parameter TPreSel        ...   2.5e-12
Total number of shell pairs                 ...    306936
Shell pairs after pre-screening             ...    134896
Total number of primitive shell pairs       ...    818326
Primitive shell pairs kept                  ...    239416
          la=0 lb=0:  60598 shell pairs
          la=1 lb=0:  46670 shell pairs
          la=1 lb=1:   8544 shell pairs
          la=2 lb=0:  12796 shell pairs
          la=2 lb=1:   5165 shell pairs
          la=2 lb=2:    801 shell pairs
          la=3 lb=0:    189 shell pairs
          la=3 lb=1:     97 shell pairs
          la=3 lb=2:     35 shell pairs
          la=3 lb=3:      1 shell pairs

Calculating one electron integrals          ... done (  0.2 sec)
Calculating RI/J V-Matrix + Cholesky decomp.... done (  4.8 sec)
Calculating Nuclear repulsion               ... done (  0.6 sec) ENN=   9252.946487613110 Eh

Diagonalization of the overlap matrix:
Smallest eigenvalue                        ... 1.741e-05
Time for diagonalization                   ...    0.256 sec
Threshold for overlap eigenvalues          ... 1.000e-07
Number of eigenvalues below threshold      ... 0
Time for construction of square roots      ...    0.329 sec
Total time needed                          ...    0.608 sec

-------------------
DFT GRID GENERATION
-------------------

General Integration Accuracy     IntAcc      ... 4.388
Radial Grid Type                 RadialGrid  ... OptM3 with GC (2021)
Angular Grid (max. ang.)         AngularGrid ... 4 (Lebedev-302)
Angular grid pruning method      GridPruning ... 4 (adaptive)
Weight generation scheme         WeightScheme... mBecke (2022)
Basis function cutoff            BFCut       ... 1.0000e-11
Integration weight cutoff        WCut        ... 1.0000e-14
Partially contracted basis set               ... off
Rotationally invariant grid construction     ... off
Angular grids for H and He will be reduced by one unit
Core-polarized basis detected: some atoms will have their core
                               angular grid increased.
Steep s-basis detected: some atoms will have their radial
                        grid points doubled.

SpecialGrid => Setting IntAcc for atom type =   7 to   8.0000
SpecialGrid => Setting IntAcc for atom type =  29 to   9.0000
SpecialGrid => Setting IntAcc for atom type =   7 to   8.0000
SpecialGrid => Setting IntAcc for atom type =   7 to   8.0000
SpecialGrid => Setting IntAcc for atom type =   7 to   8.0000
SpecialGrid => Setting IntAcc for atom type =   7 to   8.0000
SpecialGrid => Setting IntAcc for atom type =   7 to   8.0000
SpecialGrid => Setting IntAcc for atom type =   7 to   8.0000
SpecialGrid => Setting IntAcc for atom type =   7 to   8.0000
Total number of grid points                  ...   147425
Total number of batches                      ...     2364
Average number of points per batch           ...       62
Average number of grid points per atom       ...     1365

--------------------
COSX GRID GENERATION
--------------------

GRIDX 1
-------
General Integration Accuracy     IntAcc      ... 3.816
Radial Grid Type                 RadialGrid  ... OptM3 with GC (2021)
Angular Grid (max. ang.)         AngularGrid ... 1 (Lebedev-50)
Angular grid pruning method      GridPruning ... 4 (adaptive)
Weight generation scheme         WeightScheme... mBecke (2022)
Basis function cutoff            BFCut       ... 1.0000e-11
Integration weight cutoff        WCut        ... 1.0000e-14
Partially contracted basis set               ... on
Rotationally invariant grid construction     ... off
Angular grids for H and He will be reduced by one unit
Core-polarized basis detected: some atoms will have their core
                               angular grid increased.
Steep s-basis detected: some atoms will have their radial
                        grid points doubled.

SpecialGrid => Setting IntAcc for atom type =   7 to   8.0000
SpecialGrid => Setting IntAcc for atom type =  29 to   9.0000
SpecialGrid => Setting IntAcc for atom type =   7 to   8.0000
SpecialGrid => Setting IntAcc for atom type =   7 to   8.0000
SpecialGrid => Setting IntAcc for atom type =   7 to   8.0000
SpecialGrid => Setting IntAcc for atom type =   7 to   8.0000
SpecialGrid => Setting IntAcc for atom type =   7 to   8.0000
SpecialGrid => Setting IntAcc for atom type =   7 to   8.0000
SpecialGrid => Setting IntAcc for atom type =   7 to   8.0000
Total number of grid points                  ...    95182
Total number of batches                      ...      801
Average number of points per batch           ...      118
Average number of grid points per atom       ...      881
UseSFitting                                  ... on

GRIDX 2
-------
General Integration Accuracy     IntAcc      ... 4.020
Radial Grid Type                 RadialGrid  ... OptM3 with GC (2021)
Angular Grid (max. ang.)         AngularGrid ... 2 (Lebedev-110)
Angular grid pruning method      GridPruning ... 4 (adaptive)
Weight generation scheme         WeightScheme... mBecke (2022)
Basis function cutoff            BFCut       ... 1.0000e-11
Integration weight cutoff        WCut        ... 1.0000e-14
Partially contracted basis set               ... on
Rotationally invariant grid construction     ... off
Angular grids for H and He will be reduced by one unit
Core-polarized basis detected: some atoms will have their core
                               angular grid increased.
Steep s-basis detected: some atoms will have their radial
                        grid points doubled.

SpecialGrid => Setting IntAcc for atom type =   7 to   8.0000
SpecialGrid => Setting IntAcc for atom type =  29 to   9.0000
SpecialGrid => Setting IntAcc for atom type =   7 to   8.0000
SpecialGrid => Setting IntAcc for atom type =   7 to   8.0000
SpecialGrid => Setting IntAcc for atom type =   7 to   8.0000
SpecialGrid => Setting IntAcc for atom type =   7 to   8.0000
SpecialGrid => Setting IntAcc for atom type =   7 to   8.0000
SpecialGrid => Setting IntAcc for atom type =   7 to   8.0000
SpecialGrid => Setting IntAcc for atom type =   7 to   8.0000
Total number of grid points                  ...    95182
Total number of batches                      ...      801
Average number of points per batch           ...      118
Average number of grid points per atom       ...      881
UseSFitting                                  ... on

GRIDX 3
-------
General Integration Accuracy     IntAcc      ... 4.338
Radial Grid Type                 RadialGrid  ... OptM3 with GC (2021)
Angular Grid (max. ang.)         AngularGrid ... 3 (Lebedev-194)
Angular grid pruning method      GridPruning ... 4 (adaptive)
Weight generation scheme         WeightScheme... mBecke (2022)
Basis function cutoff            BFCut       ... 1.0000e-11
Integration weight cutoff        WCut        ... 1.0000e-14
Partially contracted basis set               ... on
Rotationally invariant grid construction     ... off
Angular grids for H and He will be reduced by one unit
Core-polarized basis detected: some atoms will have their core
                               angular grid increased.
Steep s-basis detected: some atoms will have their radial
                        grid points doubled.

SpecialGrid => Setting IntAcc for atom type =   7 to   8.0000
SpecialGrid => Setting IntAcc for atom type =  29 to   9.0000
SpecialGrid => Setting IntAcc for atom type =   7 to   8.0000
SpecialGrid => Setting IntAcc for atom type =   7 to   8.0000
SpecialGrid => Setting IntAcc for atom type =   7 to   8.0000
SpecialGrid => Setting IntAcc for atom type =   7 to   8.0000
SpecialGrid => Setting IntAcc for atom type =   7 to   8.0000
SpecialGrid => Setting IntAcc for atom type =   7 to   8.0000
SpecialGrid => Setting IntAcc for atom type =   7 to   8.0000
Total number of grid points                  ...    95182
Total number of batches                      ...      801
Average number of points per batch           ...      118
Average number of grid points per atom       ...      881
UseSFitting                                  ... on
Initializing property integral containers    ... done (  0.0 sec)

SHARK setup successfully completed in  21.5 seconds

Maximum memory used throughout the entire STARTUP-calculation: 325.4 MB


           ************************************************************
           *        Program running with 16 parallel MPI-processes    *
           *              working on a common directory               *
           ************************************************************
-------------------------------------------------------------------------------
                                 ORCA GUESS
                   Start orbitals & Density for SCF / CASSCF
-------------------------------------------------------------------------------

------------
SCF SETTINGS
------------
Hamiltonian:
 Density Functional     Method          .... DFT(GTOs)
 Exchange Functional    Exchange        .... PBE
   PBE kappa parameter   XKappa         ....  0.804000
   PBE mue parameter    XMuePBE         ....  0.219520
 Correlation Functional Correlation     .... PBE
   PBE beta parameter  CBetaPBE         ....  0.066725
 LDA part of GGA corr.  LDAOpt          .... PW91-LDA
 Gradients option       PostSCFGGA      .... off
 Hybrid DFT is turned on
   Fraction HF Exchange ScalHFX         ....  0.250000
   Scaling of DF-GGA-X  ScalDFX         ....  0.750000
   Scaling of DF-GGA-C  ScalDFC         ....  1.000000
   Scaling of DF-LDA-C  ScalLDAC        ....  1.000000
   Perturbative correction              ....  0.000000
   NL short-range parameter             ....  6.900000
 RI-approximation to the Coulomb term is turned on
   Number of AuxJ basis functions       .... 3358
   RIJ-COSX (HFX calculated with COS-X)).... on


General Settings:
 Integral files         IntName         .... system
 Hartree-Fock type      HFTyp           .... UHF
 Total Charge           Charge          ....    2
 Multiplicity           Mult            ....    2
 Number of Electrons    NEL             ....  419
 Basis Dimension        Dim             .... 1359
 Nuclear Repulsion      ENuc            ....   9252.9464876131 Eh

Convergence Acceleration:
 AO-DIIS                CNVDIIS         .... on
   Start iteration      DIISMaxIt       ....    12
   Startup error        DIISStart       ....  0.200000
   # of expansion vecs  DIISMaxEq       ....     5
   Bias factor          DIISBfac        ....   1.050
   Max. coefficient     DIISMaxC        ....  10.000
 MO-DIIS                CNVKDIIS        .... off
 Trust-Rad. Augm. Hess. CNVTRAH         .... auto
   Auto Start mean grad. ratio tolernc. ....  1.125000
   Auto Start start iteration           ....    50
   Auto Start num. interpolation iter.  ....    10
   Max. Number of Micro iterations      ....    24
   Max. Number of Macro iterations      .... Maxiter - #DIIS iter
   Number of Davidson start vectors     ....     2
   Converg. threshold    (grad. norm)   ....   1.000e-05
   Grad. Scal. Fac. for Micro threshold ....   0.100
   Minimum threshold for Micro iter.    ....   1.000e-02
   NR start threshold (gradient norm)   ....   1.000e-04
   Initial trust radius                 ....   0.400
   Minimum AH scaling param. (alpha)    ....   1.000
   Maximum AH scaling param. (alpha)    .... 1000.000
   Quad. conv. algorithm                .... NR
   White noise on init. David. guess    .... on
   Maximum white noise                  ....   0.010
   Pseudo random numbers                .... off
   Inactive MOs                         .... canonical
   Orbital update algorithm             .... Taylor
   Preconditioner                       .... Diag
   Full preconditioner red. dimension   ....   250
 SOSCF                  CNVSOSCF        .... on
   Start iteration      SOSCFMaxIt      ....   150
   Startup grad/error   SOSCFStart      ....  0.003300
   Hessian update       SOSCFHessUp     .... L-BFGS
 Level Shifting         CNVShift        .... on
   Level shift para.    LevelShift      ....    0.2500
   Turn off err/grad.   ShiftErr        ....    0.0010
 Zerner damping         CNVZerner       .... off
 Static damping         CNVDamp         .... on
   Fraction old density DampFac         ....    0.7000
   Max. Damping (<1)    DampMax         ....    0.9800
   Min. Damping (>=0)   DampMin         ....    0.0000
   Turn off err/grad.   DampErr         ....    0.1000

SCF Procedure:
 Maximum # iterations   MaxIter         ....   125
 SCF integral mode      SCFMode         .... Direct
   Integral package                     .... SHARK and LIBINT hybrid scheme
 Reset frequency        DirectResetFreq ....    20
 Integral Threshold     Thresh          ....  2.500e-11 Eh
 Primitive CutOff       TCut            ....  2.500e-12 Eh

Convergence Tolerance:
 Convergence Check Mode ConvCheckMode   .... Total+1el-Energy
 Convergence forced     ConvForced      .... 0
 Energy Change          TolE            ....  1.000e-08 Eh
 1-El. energy change                    ....  1.000e-05 Eh
 Orbital Gradient       TolG            ....  1.000e-05
 Orbital Rotation angle TolX            ....  1.000e-05
 DIIS Error             TolErr          ....  5.000e-07

------------------------------
INITIAL GUESS: MODEL POTENTIAL
------------------------------
Loading Hartree-Fock densities                     ... done
Calculating cut-offs                               ... done
Initializing the effective Hamiltonian             ... done
Setting up the integral package (SHARK)            ... done
Starting the Coulomb interaction                   ... done (   2.9 sec)
Making the grid                                    ... done (   1.5 sec)
Mapping shells                                     ... done
Starting the XC term evaluation                    ... done (   0.7 sec)
  promolecular density results
     # of electrons  =    421.001426820
     EX              =   -377.152479248
     EC              =    -14.692476337
     EX+EC           =   -391.844955584
Transforming the Hamiltonian                       ... done (   0.2 sec)
Diagonalizing the Hamiltonian                      ... done (   0.3 sec)
Back transforming the eigenvectors                 ... done (   0.4 sec)
Now organizing SCF variables                       ... done
                      ------------------
                      INITIAL GUESS DONE (   6.8 sec)
                      ------------------
             **** ENERGY FILE WAS UPDATED (system.en.tmp) ****
Finished Guess after   9.8 sec
Maximum memory used throughout the entire GUESS-calculation: 197.4 MB


           ************************************************************
           *        Program running with 16 parallel MPI-processes    *
           *              working on a common directory               *
           ************************************************************

-------------------------------------------------------------------------------------------
                                      ORCA LEAN-SCF
                              memory conserving SCF solver
-------------------------------------------------------------------------------------------

----------------------------------------D-I-I-S--------------------------------------------
Iteration    Energy (Eh)           Delta-E    RMSDP     MaxDP     DIISErr   Damp  Time(sec)
-------------------------------------------------------------------------------------------
               ***  Starting incremental Fock matrix formation  ***
    1    -3934.0635817378042702     0.00e+00  2.29e-03  1.05e+00  2.42e-01  0.700  37.2
Warning: op=0 Small HOMO/LUMO gap (   0.093) - skipping pre-diagonalization
         Will do a full diagonalization
    2    -3934.5066119454404543    -4.43e-01  1.82e-03  9.92e-01  1.70e-01  0.700  31.5
                               ***Turning on AO-DIIS***
    3    -3934.6980748359619611    -1.91e-01  1.22e-03  7.13e-01  1.19e-01  0.700  27.0
    4    -3934.8108929869740678    -1.13e-01  7.82e-04  4.45e-01  8.33e-02  0.700  25.7
    5    -3934.8862097034816543    -7.53e-02  1.79e-03  1.00e+00  5.85e-02  0.000  24.9
    6    -3935.0591114687758818    -1.73e-01  7.77e-05  2.59e-02  3.81e-03  0.000  26.5
    7    -3935.0594410721514578    -3.30e-04  2.45e-05  3.76e-03  4.16e-03  0.000  26.9
                              *** Initializing SOSCF ***
---------------------------------------S-O-S-C-F--------------------------------------
Iteration    Energy (Eh)           Delta-E    RMSDP     MaxDP     MaxGrad    Time(sec)
--------------------------------------------------------------------------------------
    8    -3935.0597057889081043    -2.65e-04  1.96e-05  1.01e-02  2.37e-03    21.0
               *** Restarting incremental Fock matrix formation ***
    9    -3935.0597655752208084    -5.98e-05  1.89e-05  8.48e-03  1.55e-03    36.1
   10    -3935.0597837640380021    -1.82e-05  2.58e-05  1.45e-02  5.63e-04    23.0
   11    -3935.0598002881124557    -1.65e-05  1.06e-05  4.15e-03  3.57e-04    22.8
   12    -3935.0598025415274606    -2.25e-06  4.01e-06  9.62e-04  3.74e-04    21.3
   13    -3935.0598030040946469    -4.63e-07  4.41e-06  1.44e-03  3.48e-04    19.9
   14    -3935.0598043079007766    -1.30e-06  2.48e-06  1.29e-03  4.41e-05    19.5
   15    -3935.0598041100620321     1.98e-07  1.59e-06  8.83e-04  4.39e-05    16.7
   16    -3935.0598043665740988    -2.57e-07  3.62e-06  2.66e-03  1.02e-05    22.0
   17    -3935.0598044677481084    -1.01e-07  1.85e-06  1.18e-03  1.41e-05    15.1
   18    -3935.0598043609952583     1.07e-07  4.11e-06  2.83e-03  3.96e-06    13.8
   19    -3935.0598043403770134     2.06e-08  2.33e-06  1.75e-03  5.26e-06    14.3
   20    -3935.0598044320959161    -9.17e-08  1.51e-06  5.41e-04  2.07e-06    13.1
                  *** Gradient check signals convergence ***

               *****************************************************
               *                     SUCCESS                       *
               *           SCF CONVERGED AFTER  20 CYCLES          *
               *****************************************************

Recomputing exchange energy using gridx3       ... done (   26.378 sec)
Old exchange energy                            :    -95.872537998 Eh
New exchange energy                            :    -95.872537940 Eh
Exchange energy change after final integration :      0.000000058 Eh
Total energy after final integration           :  -3935.059804374 Eh
             **** ENERGY FILE WAS UPDATED (system.en.tmp) ****

----------------
TOTAL SCF ENERGY
----------------

Total Energy       :      -3935.05980437401195 Eh         -107078.42104 eV

Components:
Nuclear Repulsion  :       9252.94648761310964 Eh          251785.47445 eV
Electronic Energy  :     -13188.00629204520556 Eh         -358863.89549 eV
One Electron Energy:     -23764.27973115218629 Eh         -646658.92699 eV
Two Electron Energy:      10576.27343910698073 Eh          287795.03149 eV

Virial components:
Potential Energy   :      -7853.85362482638084 Eh         -213714.22215 eV
Kinetic Energy     :       3918.79382045236889 Eh          106635.80111 eV
Virial Ratio       :          2.00415076287932

DFT components:
N(Alpha)           :      210.037490450205 electrons
N(Beta)            :      209.037505422364 electrons
N(Total)           :      419.074995872569 electrons
E(X)               :     -286.778573717892 Eh       
E(C)               :      -14.586765332560 Eh       
E(XC)              :     -301.365339050452 Eh       

---------------
SCF CONVERGENCE
---------------

  Last Energy change         ...    9.1719e-08  Tolerance :   1.0000e-08
  Last MAX-Density change    ...    5.4129e-04  Tolerance :   1.0000e-07
  Last RMS-Density change    ...    1.5059e-06  Tolerance :   5.0000e-09
  Last DIIS Error            ...    2.3683e-03  Tolerance :   5.0000e-07
  Last Orbital Gradient      ...    2.0736e-06  Tolerance :   1.0000e-05
  Last Orbital Rotation      ...    2.5590e-05  Tolerance :   1.0000e-05


----------------------
UHF SPIN CONTAMINATION
----------------------

[...]
     X        0.3364963       0.9365136       0.0985524
     Y        0.7589293      -0.3316598       0.5603821
     Z        0.5574913      -0.1137722      -0.8223499

 Note: Tensor is right-handed

 Contributions:
 V(El )       0.2630897       0.6622094  -0.9252992
 V(Nuc)       0.2169697      -0.0337760  -0.1831937

 Quadrupole tensor eigenvalues (in MHz;Q= 0.0204 I=  1.0)
  e**2qQ            =    -5.323742 MHz 
  e**2qQ/(4I*(2I-1))=    -1.330935 MHz 
  eta               =     0.133852
  NOTE: the diagonal representation of the SH term I*Q*I = e**2qQ/(4I(2I-1))*[-(1-eta),-(1+eta),2]

 -----------------------------------------------------------
 Nucleus   6N : A  : Isotope=   14 I=  1.0 P= 38.5677 MHz/au**3 
                Q  : Isotope=   14 I=  1.0 Q=  0.0204 barn      
                HFC: iso  =YES dip=YES orb=YES gauge=YES    
                EFG: fgrad=YES rho= NO                      
 -----------------------------------------------------------

 Total HFC matrix (all values in MHz): 
 ----------------------------------------------------------------
                33.2518               1.3185               3.1633
                 1.3039              33.8491               2.6779
                 3.1379               2.6853              41.0792

 A(FC)          36.1565              36.1565              36.1565
 A(SD)          -4.0074              -2.9406               6.9480
 A(ORB+DIA)     -0.1311              -0.1912               0.0329    A(PC) =   -0.0965
 A(ORB)         -0.1306              -0.1908               0.0325    A(PC) =   -0.0963
 A(DIA)         -0.0005              -0.0004               0.0004    A(PC) =   -0.0002
             ----------           ----------           ----------
 A(Tot)         32.0180              33.0247              43.1373    A(iso)=   36.0600
 Orientation: 
  X           0.9159620            0.2329971            0.3266895
  Y          -0.3352914            0.8916746            0.3041315
  Z          -0.2204390           -0.3881091            0.8948620

Notes:  (1) The A matrix conforms to the "SAI" spin Hamiltonian convention.
        (2) Tensor is right-handed.

 Raw EFG matrix (all values in a.u.**-3):
 ------------------------------------------------------
              0.2256919      -0.1265119      -0.2765411
             -0.1265119       0.1621794      -0.1928874
             -0.2765411      -0.1928874      -0.3878713

 V(Tot)       0.2137260       0.3505954      -0.5643215
 Orientation: 
     X        0.2411974       0.9022238      -0.3575136
     Y        0.8864168      -0.3547835      -0.2973110
     Z       -0.3950810      -0.2451954      -0.8853193

 Note: Tensor is right-handed

 Contributions:
 V(El )       1.8105323      -0.1579602  -1.6525721
 V(Nuc)      -1.5968063       0.5085557   1.0882506

 Quadrupole tensor eigenvalues (in MHz;Q= 0.0204 I=  1.0)
  e**2qQ            =    -2.710258 MHz 
  e**2qQ/(4I*(2I-1))=    -0.677565 MHz 
  eta               =     0.242538
  NOTE: the diagonal representation of the SH term I*Q*I = e**2qQ/(4I(2I-1))*[-(1-eta),-(1+eta),2]

 -----------------------------------------------------------
 Nucleus   7N : A  : Isotope=   14 I=  1.0 P= 38.5677 MHz/au**3 
                Q  : Isotope=   14 I=  1.0 Q=  0.0204 barn      
                HFC: iso  =YES dip=YES orb=YES gauge=YES    
                EFG: fgrad=YES rho= NO                      
 -----------------------------------------------------------

 Total HFC matrix (all values in MHz): 
 ----------------------------------------------------------------
                36.9887              -3.2894              -4.5610
                -3.2831              34.4738               2.4849
                -4.5333               2.4765              35.2255

 A(FC)          35.6625              35.6625              35.6625
 A(SD)          -4.0779              -3.0018               7.0797
 A(ORB+DIA)     -0.1354              -0.1994               0.0353    A(PC) =   -0.0998
 A(ORB)         -0.1350              -0.1990               0.0349    A(PC) =   -0.0997
 A(DIA)         -0.0005              -0.0004               0.0004    A(PC) =   -0.0001
             ----------           ----------           ----------
 A(Tot)         31.4492              32.4613              42.7775    A(iso)=   35.5627
 Orientation: 
  X          -0.6775018            0.2391512            0.6955559
  Y          -0.1434201            0.8845582           -0.4438328
  Z          -0.7214028           -0.4004542           -0.5649906

Notes:  (1) The A matrix conforms to the "SAI" spin Hamiltonian convention.
        (2) Tensor is right-handed.

 Raw EFG matrix (all values in a.u.**-3):
 ------------------------------------------------------
             -0.1565003       0.2685585       0.3563897
              0.2685585       0.0953702      -0.1828190
              0.3563897      -0.1828190       0.0611301

 V(Tot)       0.2503009       0.3267727      -0.5770736
 Orientation: 
     X        0.2550070      -0.6370152      -0.7274497
     Y        0.8894842      -0.1404909       0.4348335
     Z       -0.3791956      -0.7579406       0.5307888

 Note: Tensor is right-handed

 Contributions:
 V(El )       1.8633056      -0.1456498  -1.7176558
 V(Nuc)      -1.6130047       0.4724225   1.1405822

 Quadrupole tensor eigenvalues (in MHz;Q= 0.0204 I=  1.0)
  e**2qQ            =    -2.771503 MHz 
  e**2qQ/(4I*(2I-1))=    -0.692876 MHz 
  eta               =     0.132517
  NOTE: the diagonal representation of the SH term I*Q*I = e**2qQ/(4I(2I-1))*[-(1-eta),-(1+eta),2]

 -----------------------------------------------------------
 Nucleus   8N : A  : Isotope=   14 I=  1.0 P= 38.5677 MHz/au**3 
                Q  : Isotope=   14 I=  1.0 Q=  0.0204 barn      
                HFC: iso  =YES dip=YES orb=YES gauge=YES    
                EFG: fgrad=YES rho= NO                      
 -----------------------------------------------------------

 Total HFC matrix (all values in MHz): 
 ----------------------------------------------------------------
                 0.1231              -0.0218              -0.0312
                -0.0224               0.1230               0.0342
                -0.0319               0.0342               0.1524

 A(FC)           0.1336               0.1336               0.1336
 A(SD)          -0.0307              -0.0299               0.0607
 A(ORB+DIA)     -0.0029              -0.0008               0.0011    A(PC) =   -0.0008
 A(ORB)         -0.0029              -0.0007               0.0011    A(PC) =   -0.0008
 A(DIA)         -0.0000              -0.0000               0.0000    A(PC) =   -0.0000
             ----------           ----------           ----------
 A(Tot)          0.1001               0.1030               0.1954    A(iso)=    0.1328
 Orientation: 
  X           0.2570697           -0.8456734           -0.4677090
  Y           0.8713316           -0.0064910            0.4906517
  Z          -0.4179669           -0.5336613            0.7351934

Notes:  (1) The A matrix conforms to the "SAI" spin Hamiltonian convention.
        (2) Tensor is right-handed.

 Raw EFG matrix (all values in a.u.**-3):
 ------------------------------------------------------
             -0.8427009       0.1738115      -0.6381948
              0.1738115       0.7106296      -0.1273970
             -0.6381948      -0.1273970       0.1320714

 V(Tot)       0.3484962       0.8151643      -1.1636605
 Orientation: 
     X       -0.3661456       0.2444393      -0.8978791
     Y        0.4602573       0.8861683       0.0535631
     Z        0.8087649      -0.3936435      -0.4369716

 Note: Tensor is right-handed

 Contributions:
 V(El )      -1.3358228       2.1868742  -0.8510515
 V(Nuc)       1.6843190      -1.3717099  -0.3126090

 Quadrupole tensor eigenvalues (in MHz;Q= 0.0204 I=  1.0)
  e**2qQ            =    -5.588694 MHz 
  e**2qQ/(4I*(2I-1))=    -1.397174 MHz 
  eta               =     0.401035
  NOTE: the diagonal representation of the SH term I*Q*I = e**2qQ/(4I(2I-1))*[-(1-eta),-(1+eta),2]

 -----------------------------------------------------------
 Nucleus   9N : A  : Isotope=   14 I=  1.0 P= 38.5677 MHz/au**3 
                Q  : Isotope=   14 I=  1.0 Q=  0.0204 barn      
                HFC: iso  =YES dip=YES orb=YES gauge=YES    
                EFG: fgrad=YES rho= NO                      
 -----------------------------------------------------------

 Total HFC matrix (all values in MHz): 
 ----------------------------------------------------------------
                -0.0005               0.0025              -0.0081
                 0.0025               0.0221              -0.0039
                -0.0081              -0.0039               0.0129

 A(FC)           0.0116               0.0116               0.0116
 A(SD)          -0.0157               0.0022               0.0135
 A(ORB+DIA)     -0.0002               0.0002              -0.0004    A(PC) =   -0.0001
 A(ORB)         -0.0002               0.0002              -0.0004    A(PC) =   -0.0001
 A(DIA)         -0.0000               0.0000              -0.0000    A(PC) =   -0.0000
             ----------           ----------           ----------
 A(Tot)         -0.0043               0.0140               0.0247    A(iso)=    0.0115
 Orientation: 
  X           0.9066569           -0.3556679           -0.2268781
  Y          -0.0226624            0.4959545           -0.8680527
  Z           0.4212597            0.7921676            0.4416003

Notes:  (1) The A matrix conforms to the "SAI" spin Hamiltonian convention.
        (2) Tensor is right-handed.

 Raw EFG matrix (all values in a.u.**-3):
 ------------------------------------------------------
              0.2006726      -0.1273871       0.0770177
             -0.1273871      -0.3310938       0.2523294
              0.0770177       0.2523294       0.1304212

 V(Tot)       0.2181126       0.2564578      -0.4745704
 Orientation: 
     X        0.7641435       0.6086071      -0.2137337
     Y       -0.4071187       0.1980285      -0.8916496
     Z       -0.5003389       0.7683633       0.3990975

 Note: Tensor is right-handed

 Contributions:
 V(El )      -0.4413651      -0.5725353   1.0139004
 V(Nuc)       0.6594778       0.8289931  -1.4884708

 Quadrupole tensor eigenvalues (in MHz;Q= 0.0204 I=  1.0)
  e**2qQ            =    -2.279212 MHz 
  e**2qQ/(4I*(2I-1))=    -0.569803 MHz 
  eta               =     0.080800
  NOTE: the diagonal representation of the SH term I*Q*I = e**2qQ/(4I(2I-1))*[-(1-eta),-(1+eta),2]


Hyperfine and quadrupole coupling calculation done in  67.7 sec 
----------------------------------------------------------------------------
                           ORCA EULER ANGLE PROGRAM
----------------------------------------------------------------------------

Only g-tensor available        -->  using g-tensor as reference tensor

Reference tensor               ...  g

g-tensor ordering              ...  |g_min> --> |gx>
                                    |g_mid> --> |gy>
                                    |g_max> --> |gz>

A- and EFG-tensor ordering     ...  the axes |Ax>, |Qx>, |Ay>, etc. are assigned
                                    such that the Euler rotation is minimal. You
                                    can find the respective eigenvalues as Ax,
                                    EFGx, Ay, etc. in the tables below.
                                    The relation of |Ax>, |Ay>,  etc. to Amin, Amid, etc.
                                    (as printed in the ORCA EPR/NMR CALCULATION Output)
                                    is obtained in the detailed printout.

Euler rotation around          ...  z - y - z
   First rotation              -->  by alpha around z
   Second rotation             -->  by beta around y'
   Third rotation              -->  by gamma around z''
   Positive / Negative angle   -->  clockwise / counterclockwise rotation

Plot EFG-tensors                    (-)
Plot HFC-tensors                    (-)
Detailed Printout                   (-)

-------------------------------------------------------------------------
          Euler rotation of hyperfine tensor to g-tensor
-------------------------------------------------------------------------

-------------------------------------------------------------------
 Atom  |   Alpha    Beta    Gamma   |   Ax       Ay       Az 
       |          [degrees]         |           [MHz]         
-------------------------------------------------------------------
  0Cu    -102.1      0.4    110.3      24.72    18.89  -599.66
  2N        8.5     13.2    -10.8      38.46    49.86    36.88
  3N      178.7     14.3   -138.4      -1.11    -1.06    -0.30
  4N       82.2     12.9    -99.1      49.88    38.33    36.73
  5N        6.0     13.7     25.9      -1.11    -1.06    -0.32
  6N     -117.8      2.1    120.4      43.14    32.02    33.02
  7N     -122.0      2.5    100.2      31.45    42.78    32.46
  8N     -124.0      3.9     85.8       0.10     0.20     0.10
  9N       -7.2      3.5     51.6       0.01    -0.00     0.02
-------------------------------------------------------------------


-------------------------------------------------------------------------------
    Euler rotation of Electric Field Gradient (EFG) tensor to g-tensor
-------------------------------------------------------------------------------

-------------------------------------------------------------------
 Atom  |   Alpha    Beta    Gamma  |   EFGx     EFGy     EFGz
       |          [degrees]        |         [a.u.**-3]       
-------------------------------------------------------------------
  0Cu     -89.4      0.5    129.0      0.95     1.16    -2.11
  2N       27.5      4.5    -29.0      0.25    -0.64     0.39
  3N       97.2     31.4   -124.3      0.63     0.47    -1.10
  4N       59.9      3.7    -77.6     -0.64     0.25     0.39
  5N       -7.3     32.1     14.7      0.48     0.63    -1.11
  6N     -107.2      2.5    108.0     -0.56     0.35     0.21
  7N     -143.3      3.4    124.3      0.33    -0.58     0.25
  8N      -65.1      2.7    109.7      0.35    -1.16     0.82
  9N     -111.4      1.0     95.2      0.26     0.22    -0.47
-------------------------------------------------------------------


Maximum memory used throughout the entire PROP-calculation: 444.0 MB

--------------------------------
SUGGESTED CITATIONS FOR THIS RUN
--------------------------------

Below you find a list of papers that are relevant to this ORCA run
We neither can nor want to force you to cite these papers, but we appreciate if you do
You receive ORCA, which is the product of decades of hard work by many enthusiastic individuals, for free
The only thing we kindly ask in return is that you cite our papers,
We deeply appreciate it, if you show your appreciation for ORCA by not just citing the generic ORCA reference.

Please note that relegating all ORCA citations to the supporting information does *not* help us.
SI sections are not indexed - citations you put there will not count into any citation statistics
But we need these citations in order to attract the funding resources that allow us to do what we are doing

Therefore, if you are a happy ORCA user, please consider citing a few of the papers listed below in the main body of your paper

In addition to the list printed below, the program has created the file system.bibtex that contains the list in bibtex format
You can import this file easily into all common literature databanks and citation aid programs


List of essential papers. We consider these as the minimum necessary citations

  1. Neese,F.
     Software update: the ORCA program system, version 5.0
     WIRES Comput. Molec. Sci., 2022 12(1)e1606
     doi.org/10.1002/wcms.1606

List of papers to cite with high priority. The work reported in these papers was absolutely
necessary for this run to complete.
Our perspective: the developers of density functionals and basis sets usually get cited in chemistry papers
Good! But without the algorithms to do something with them, the functionals or basis sets would not do anything.
Hence, in our opinion, the algorithm design and method developments papers are equally worthy of getting cited

  1. Neese,F.
     Prediction of electron paramagnetic resonance g values using coupled perturbed Hartree-Fock and Kohn-Sham theory
     J. Chem. Phys., 2001 115(24)11080-11096
     doi.org/10.1063/1.1419058
  2. Neese,F.
     An improvement of the resolution of the identity approximation for the formation of the Coulomb matrix
     J. Comp. Chem., 2003 24(14)1740-1747
     doi.org/10.1002/jcc.10318
  3. Neese,F.
     Metal and ligand hyperfine couplings in transition metal complexes: The effect of spin-orbit coupling as studied by coupled perturbed Kohn-Sham theory
     J. Chem. Phys., 2003 118(9)3939-3948
     doi.org/10.1063/1.1540619
  4. Neese,F.
     Efficient and accurate approximations to the molecular spin-orbit coupling operator and their use in molecular g-tensor calculations
     J. Chem. Phys., 2005 122(3)Art. No. 034107
     doi.org/10.1063/1.1829047
  5. Neese,F.; Wennmohs,F.; Hansen,A.; Becker,U.
     Efficient, approximate and parallel Hartree-Fock and hybrid DFT calculations. A 'chain-of-spheres' algorithm for the Hartree-Fock exchange
     Chem. Phys., 2009 356(1-3)98-109
     doi.org/10.1016/j.chemphys.2008.10.036
  6. Helmich-Paris,B.; de Souza,B.; Neese,F.; Izsák,R.
     An improved chain of spheres for exchange algorithm
     J. Chem. Phys., 2021 155 104109
     doi.org/doi: 10.1063/5.0058766.
  7. Neese,F.
     The SHARK Integral Generation and Digestion System
     J. Comp. Chem., 2022  1-16
     doi.org/10.1002/jcc.26942

List of suggested additional citations. These are papers that are important in the 'surrounding' of 
of this run, or papers that preceded the highly important papers. If you like your results we are grateful for a citation.

  1. Neese,F.
     Theoretical study of ligand superhyperfine structure. Application to Cu(II) complexes
     J. Phys. Chem. A, 2001 105(17)4290-4299
     doi.org/10.1021/jp003254f
  2. Izsak,R.; Neese,F.
     An overlap fitted chain of spheres exchange method
     J. Chem. Phys., 2011 135 144105
     doi.org/10.1063/1.3646921
  3. Izsak,R.; Hansen,A.; Neese,F.
     The resolution of identity and chain of spheres approximations for the LPNO-CCSD singles Fock term
     Molec. Phys., 2012 110 2413-2417
     doi.org/10.1080/00268976.2012.687466
  4. Neese,F.
     The ORCA program system
     WIRES Comput. Molec. Sci., 2012 2(1)73-78
     doi.org/10.1002/wcms.81
  5. Izsak,R.; Neese,F.; Klopper,W.
     Robust fitting techniques in the chain of spheres approximation to the Fock exchange: The role of the complementary space
     J. Chem. Phys., 2013 139 
     doi.org/10.1063/1.4819264
  6. Neese,F.
     Software update: the ORCA program system, version 4.0
     WIRES Comput. Molec. Sci., 2018 8(1)1-6
     doi.org/10.1002/wcms.1327
  7. Neese,F.; Wennmohs,F.; Becker,U.; Riplinger,C.
     The ORCA quantum chemistry program package
     J. Chem. Phys., 2020 152 Art. No. L224108
     doi.org/10.1063/5.0004608

List of optional additional citations

  1. Neese,F.
     Approximate second-order SCF convergence for spin unrestricted wavefunctions
     Chem. Phys. Lett., 2000 325(1-3)93-98
     doi.org/10.1016/s0009-2614(00)00662-x

Timings for individual modules:

Sum of individual times          ...     3424.374 sec (=  57.073 min)
Startup calculation              ...       22.719 sec (=   0.379 min)   0.7 %
SCF iterations                   ...      507.617 sec (=   8.460 min)  14.8 %
Property integrals               ...      291.174 sec (=   4.853 min)   8.5 %
SCF Response                     ...     2531.642 sec (=  42.194 min)  73.9 %
Property calculations            ...       71.221 sec (=   1.187 min)   2.1 %
                             ****ORCA TERMINATED NORMALLY****
TOTAL RUN TIME: 0 days 0 hours 57 minutes 6 seconds 388 msec
